 vasp.6.4.2 20Jul23 (build Nov 06 2023 14:18:49) gamma-only                     
  
 executed on             LinuxIFC date 2024.10.05  19:41:56
 running  816 mpi-ranks, on   17 nodes
 distrk:  each k-point on  816 cores,    1 groups
 distr:  one band on NCORE=  24 cores,   34 groups


--------------------------------------------------------------------------------------------------------


 INCAR:
   NCORE = 24
   LREAL = Auto
   ISTART = 0
   ICHARG = 2
   LORBIT = 11
   ENCUT = 500
   EDIFF = 1E-4
   NELM = 60
   NELMIN = 4
   IBRION = 1
   NSW = 900
   POTIM = 0.3
   ISIF = 2
   EDIFFG = -1E-2
   ADDGRID = .TRUE.
   ISMEAR = -2
   FERWE = 575*1 0 1 307*0
   FERDO = 576*1 308*0
   IVDW = 11
   VDW_S8 = 0.109
   VDW_SR = 1.129
   ISPIN = 2
   NUPDOWN = 0
   GGA = PE
   LHFCALC = .TRUE.
   AEXX = 0.32
   HFSCREEN = 0.2
   ALGO = Normal
   TIME = 0.4
   PRECFOCK = Fast
   NBANDS = 884

 POTCAR:    PAW_PBE Al 04Jan2001                  
 POTCAR:    PAW_PBE N 08Apr2002                   
 POTCAR:    PAW_PBE B 06Sep2000                   
 -----------------------------------------------------------------------------
|                                                                             |
|           W    W    AA    RRRRR   N    N  II  N    N   GGGG   !!!           |
|           W    W   A  A   R    R  NN   N  II  NN   N  G    G  !!!           |
|           W    W  A    A  R    R  N N  N  II  N N  N  G       !!!           |
|           W WW W  AAAAAA  RRRRR   N  N N  II  N  N N  G  GGG   !            |
|           WW  WW  A    A  R   R   N   NN  II  N   NN  G    G                |
|           W    W  A    A  R    R  N    N  II  N    N   GGGG   !!!           |
|                                                                             |
|     You use a magnetic or noncollinear calculation, but did not specify     |
|     the initial magnetic moment with the MAGMOM tag. Note that a            |
|     default of 0 will be used for all atoms. This ferromagnetic setup       |
|     may break the symmetry of the crystal, in particular it may rule        |
|     out finding an antiferromagnetic solution. Thence, we recommend         |
|     setting the initial magnetic moment manually or verifying carefully     |
|     that this magnetic setup is desired.                                    |
|                                                                             |
 -----------------------------------------------------------------------------

 POTCAR:    PAW_PBE Al 04Jan2001                  
   SHA256 =  17880443556af62b473fe41b62a467bd001ad55d2cabe504a3f22e34d4e9db96 Al/POTCAR             
   COPYR  = (c) Copyright 04Jan2001 Georg Kresse                                                    
   COPYR  = This file is part of the software VASP. Any use, copying, and all other rights are regul
   COPYR  = If you do not have a valid VASP license, you may not use, copy or distribute this file. 
   VRHFIN =Al: s2p1                                                                                 
   LEXCH  = PE                                                                                      
   EATOM  =    53.5387 eV,    3.9350 Ry                                                             
                                                                                                    
   TITEL  = PAW_PBE Al 04Jan2001                                                                    
   LULTRA =        F    use ultrasoft PP ?                                                          
   IUNSCR =        1    unscreen: 0-lin 1-nonlin 2-no                                               
   RPACOR =    1.500    partial core radius                                                         
   POMASS =   26.981; ZVAL   =    3.000    mass and valenz                                          
   RCORE  =    1.900    outmost cutoff radius                                                       
   RWIGS  =    2.650; RWIGS  =    1.402    wigner-seitz radius (au A)                               
   ENMAX  =  240.300; ENMIN  =  180.225 eV                                                          
   ICORE  =        2    local potential                                                             
   LCOR   =        T    correct aug charges                                                         
   LPAW   =        T    paw PP                                                                      
   EAUG   =  291.052                                                                                
   DEXC   =    0.000                                                                                
   RMAX   =    1.939    core radius for proj-oper                                                   
   RAUG   =    1.300    factor for augmentation sphere                                              
   RDEP   =    1.966    radius for radial grids                                                     
   RDEPT  =    1.856    core radius for aug-charge                                                  
                                                                                                    
   Atomic configuration                                                                             
    6 entries                                                                                       
     n  l   j            E        occ.                                                              
     1  0  0.50     -1511.1048   2.0000                                                             
     2  0  0.50      -108.1629   2.0000                                                             
     2  1  1.50       -69.6402   6.0000                                                             
     3  0  0.50        -7.7528   2.0000                                                             
     3  1  1.50        -2.7121   1.0000                                                             
     3  2  2.50        -2.7212   0.0000                                                             
   Description                                                                                      
     l       E           TYP  RCUT    TYP  RCUT                                                     
     0     -7.7528455     23  1.900                                                                 
     0     -3.3096929     23  1.900                                                                 
     1     -2.7120682     23  1.900                                                                 
     1     13.6058260     23  1.900                                                                 
     2     -2.7211652      7  1.900                                                                 
  local pseudopotential read in
  partial core-charges read in
  partial kinetic energy density read in
  atomic valenz-charges read in
  non local Contribution for L=           0  read in
    real space projection operators read in
  non local Contribution for L=           0  read in
    real space projection operators read in
  non local Contribution for L=           1  read in
    real space projection operators read in
  non local Contribution for L=           1  read in
    real space projection operators read in
    PAW grid and wavefunctions read in
 
   number of l-projection  operators is LMAX  =           4
   number of lm-projection operators is LMMAX =           8
 
 POTCAR:    PAW_PBE N 08Apr2002                   
   SHA256 =  e053789ff3a61a86a1b75d8a110fcc91f86041011e7b0817c7c99e4e8a6349d7 N/POTCAR              
   COPYR  = (c) Copyright 08Apr2002 Georg Kresse                                                    
   COPYR  = This file is part of the software VASP. Any use, copying, and all other rights are regul
   COPYR  = If you do not have a valid VASP license, you may not use, copy or distribute this file. 
   VRHFIN =N: s2p3                                                                                  
   LEXCH  = PE                                                                                      
   EATOM  =   264.5486 eV,   19.4438 Ry                                                             
                                                                                                    
   TITEL  = PAW_PBE N 08Apr2002                                                                     
   LULTRA =        F    use ultrasoft PP ?                                                          
   IUNSCR =        1    unscreen: 0-lin 1-nonlin 2-no                                               
   RPACOR =    1.200    partial core radius                                                         
   POMASS =   14.001; ZVAL   =    5.000    mass and valenz                                          
   RCORE  =    1.500    outmost cutoff radius                                                       
   RWIGS  =    1.400; RWIGS  =    0.741    wigner-seitz radius (au A)                               
   ENMAX  =  400.000; ENMIN  =  300.000 eV                                                          
   ICORE  =        2    local potential                                                             
   LCOR   =        T    correct aug charges                                                         
   LPAW   =        T    paw PP                                                                      
   EAUG   =  627.112                                                                                
   DEXC   =    0.000                                                                                
   RMAX   =    1.529    core radius for proj-oper                                                   
   RAUG   =    1.300    factor for augmentation sphere                                              
   RDEP   =    1.514    radius for radial grids                                                     
   RDEPT  =    1.338    core radius for aug-charge                                                  
                                                                                                    
   Atomic configuration                                                                             
    4 entries                                                                                       
     n  l   j            E        occ.                                                              
     1  0  0.50      -384.7179   2.0000                                                             
     2  0  0.50       -18.5828   2.0000                                                             
     2  1  0.50        -7.0898   3.0000                                                             
     3  2  1.50        -6.8029   0.0000                                                             
   Description                                                                                      
     l       E           TYP  RCUT    TYP  RCUT                                                     
     0    -18.5828119     23  1.200                                                                 
     0    -13.5018863     23  1.200                                                                 
     1     -7.0897853     23  1.500                                                                 
     1      9.5240782     23  1.500                                                                 
     2     -6.8029130      7  1.500                                                                 
  local pseudopotential read in
  partial core-charges read in
  partial kinetic energy density read in
  atomic valenz-charges read in
  non local Contribution for L=           0  read in
    real space projection operators read in
  non local Contribution for L=           0  read in
    real space projection operators read in
  non local Contribution for L=           1  read in
    real space projection operators read in
  non local Contribution for L=           1  read in
    real space projection operators read in
    PAW grid and wavefunctions read in
 
   number of l-projection  operators is LMAX  =           4
   number of lm-projection operators is LMMAX =           8
 
 POTCAR:    PAW_PBE B 06Sep2000                   
   SHA256 =  a32ced30f5ae56fd4d10b4325ff17eb3e4e38ee0f4288bc219fb012fddfa6e97 B/POTCAR              
   COPYR  = (c) Copyright 06Sep2000 Georg Kresse                                                    
   COPYR  = This file is part of the software VASP. Any use, copying, and all other rights are regul
   COPYR  = If you do not have a valid VASP license, you may not use, copy or distribute this file. 
   VRHFIN =B: s2p1                                                                                  
   LEXCH  = PE                                                                                      
   EATOM  =    71.1703 eV,    5.2309 Ry                                                             
                                                                                                    
   TITEL  = PAW_PBE B 06Sep2000                                                                     
   LULTRA =        F    use ultrasoft PP ?                                                          
   IUNSCR =        1    unscreen: 0-lin 1-nonlin 2-no                                               
   RPACOR =    1.200    partial core radius                                                         
   POMASS =   10.811; ZVAL   =    3.000    mass and valenz                                          
   RCORE  =    1.700    outmost cutoff radius                                                       
   RWIGS  =    1.710; RWIGS  =    0.905    wigner-seitz radius (au A)                               
   ENMAX  =  318.614; ENMIN  =  238.960 eV                                                          
   ICORE  =        2    local potential                                                             
   LCOR   =        T    correct aug charges                                                         
   LPAW   =        T    paw PP                                                                      
   EAUG   =  535.514                                                                                
   DEXC   =    0.000                                                                                
   RMAX   =    1.732    core radius for proj-oper                                                   
   RAUG   =    1.300    factor for augmentation sphere                                              
   RDEP   =    1.757    radius for radial grids                                                     
   RDEPT  =    1.436    core radius for aug-charge                                                  
                                                                                                    
   Atomic configuration                                                                             
    4 entries                                                                                       
     n  l   j            E        occ.                                                              
     1  0  0.50      -180.5896   2.0000                                                             
     2  0  0.50        -9.4431   2.0000                                                             
     2  1  0.50        -3.6068   1.0000                                                             
     3  2  1.50        -4.0817   0.0000                                                             
   Description                                                                                      
     l       E           TYP  RCUT    TYP  RCUT                                                     
     0     -9.4430752     23  1.500                                                                 
     0      0.8675899     23  1.500                                                                 
     1     -3.6067955     23  1.700                                                                 
     1      6.1086146     23  1.700                                                                 
     2     -4.0817478      7  1.700                                                                 
  local pseudopotential read in
  partial core-charges read in
  partial kinetic energy density read in
  atomic valenz-charges read in
  non local Contribution for L=           0  read in
    real space projection operators read in
  non local Contribution for L=           0  read in
    real space projection operators read in
  non local Contribution for L=           1  read in
    real space projection operators read in
  non local Contribution for L=           1  read in
    real space projection operators read in
    PAW grid and wavefunctions read in
 
   number of l-projection  operators is LMAX  =           4
   number of lm-projection operators is LMMAX =           8
 
 Optimization of the real space projectors (new method)

 maximal supplied QI-value         = 19.84
 optimisation between [QCUT,QGAM] = [ 11.31, 22.82] = [ 35.82,145.81] Ry 
 Optimized for a Real-space Cutoff    1.07 Angstroem

   l    n(q)    QCUT    max X(q) W(low)/X(q) W(high)/X(q)  e(spline) 
   0      7    11.310   176.870    0.43E-03    0.33E-03    0.78E-07
   0      7    11.310   105.762    0.41E-03    0.33E-03    0.76E-07
   1      7    11.310    55.370    0.40E-03    0.29E-03    0.65E-07
   1      7    11.310    20.208    0.38E-03    0.25E-03    0.60E-07
 Optimization of the real space projectors (new method)

 maximal supplied QI-value         = 25.13
 optimisation between [QCUT,QGAM] = [ 11.31, 22.87] = [ 35.82,146.48] Ry 
 Optimized for a Real-space Cutoff    1.27 Angstroem

   l    n(q)    QCUT    max X(q) W(low)/X(q) W(high)/X(q)  e(spline) 
   0      9    11.310    79.467    0.75E-04    0.16E-03    0.36E-06
   0      9    11.310    66.151    0.74E-04    0.16E-03    0.36E-06
   1      8    11.310    17.416    0.35E-03    0.12E-03    0.95E-06
   1      8    11.310    12.382    0.37E-03    0.13E-03    0.98E-06
 Optimization of the real space projectors (new method)

 maximal supplied QI-value         = 22.11
 optimisation between [QCUT,QGAM] = [ 11.28, 22.77] = [ 35.61,145.23] Ry 
 Optimized for a Real-space Cutoff    1.16 Angstroem

   l    n(q)    QCUT    max X(q) W(low)/X(q) W(high)/X(q)  e(spline) 
   0      8    11.276    53.033    0.48E-03    0.56E-03    0.11E-06
   0      8    11.276    34.740    0.48E-03    0.55E-03    0.11E-06
   1      7    11.276    30.949    0.26E-03    0.19E-04    0.19E-06
   1      7    11.276    19.518    0.24E-03    0.14E-04    0.18E-06
  PAW_PBE Al 04Jan2001                  :
 energy of atom  1       EATOM=  -53.5387
 kinetic energy error for atom=    0.0003 (will be added to EATOM!!)
  PAW_PBE N 08Apr2002                   :
 energy of atom  2       EATOM= -264.5486
 kinetic energy error for atom=    0.0138 (will be added to EATOM!!)
  PAW_PBE B 06Sep2000                   :
 energy of atom  3       EATOM=  -71.1703
 kinetic energy error for atom=    0.0012 (will be added to EATOM!!)
 
 
 POSCAR: Species order: X N B
  positions in direct lattice
  velocities in cartesian coordinates
 exchange correlation table for  LEXCH =        8
   RHO(1)=    0.500       N(1)  =     2000
   RHO(2)=  100.500       N(2)  =     4000

 VTST: version 4.1, (05/19/21)

 CHAIN: initializing optimizer
 
 OPT: Using VASP QUASI-newton optimizer
 CHAIN: Read ICHAIN            0
 
 POSCAR: Species order: X N B
  positions in direct lattice
  velocities in cartesian coordinates
 


--------------------------------------------------------------------------------------------------------


 ion  position               nearest neighbor table
   1  0.444  0.389  0.375-  87 1.68 100 1.68 138 1.68 182 2.59 147 2.59 159 2.59 195 2.59 207 2.59
                           209 2.59
   2  0.111  0.056  0.125- 253 1.44 276 1.44 217 1.44
   3  0.611  0.556  0.125- 281 1.44 218 1.44 255 1.44
   4  0.444  0.056  0.125- 219 1.44 278 1.44 256 1.44
   5  0.944  0.556  0.125- 220 1.44 251 1.44 283 1.44
   6  0.778  0.056  0.125- 221 1.44 258 1.44 282 1.44
   7  0.111  0.722  0.625- 284 1.44 259 1.44 222 1.44
   8  0.444  0.722  0.625- 257 1.44 223 1.44 262 1.44
   9  0.278  0.222  0.625- 261 1.44 224 1.44 285 1.44
  10  0.778  0.722  0.625- 286 1.44 263 1.44 225 1.44
  11  0.611  0.222  0.625- 226 1.44 264 1.44 287 1.44
  12  0.944  0.222  0.625- 260 1.44 227 1.44 288 1.44
  13  0.278  0.722  0.125- 280 1.44 228 1.44 266 1.44
  14  0.111  0.222  0.125- 267 1.44 229 1.44 217 1.44
  15  0.444  0.222  0.125- 230 1.44 269 1.44 219 1.44
  16  0.611  0.722  0.125- 218 1.44 268 1.44 231 1.44
  17  0.944  0.722  0.125- 220 1.44 265 1.44 232 1.44
  18  0.778  0.222  0.125- 233 1.44 270 1.44 221 1.44
  19  0.111  0.889  0.625- 272 1.44 222 1.44 234 1.44
  20  0.444  0.889  0.625- 223 1.44 235 1.44 273 1.44
  21  0.278  0.389  0.625- 274 1.44 224 1.44 236 1.44
  22  0.611  0.389  0.625- 237 1.44 226 1.44 277 1.44
  23  0.778  0.889  0.625- 225 1.44 275 1.44 238 1.44
  24  0.944  0.389  0.625- 239 1.44 271 1.44 227 1.44
  25  0.111  0.389  0.125- 279 1.44 240 1.44 229 1.44
  26  0.278  0.889  0.125- 241 1.44 228 1.44 278 1.44
  27  0.611  0.889  0.125- 231 1.44 242 1.44 282 1.44
  28  0.444  0.389  0.130- 230 1.44 243 1.44 281 1.44
  29  0.944  0.889  0.125- 232 1.44 276 1.44 244 1.44
  30  0.778  0.389  0.125- 245 1.44 283 1.44 233 1.44
  31  0.278  0.556  0.625- 257 1.44 236 1.44 246 1.44
  32  0.111  0.056  0.625- 285 1.44 234 1.44 247 1.44
  33  0.611  0.556  0.625- 237 1.44 248 1.44 286 1.44
  34  0.444  0.056  0.625- 249 1.44 235 1.44 287 1.44
  35  0.944  0.556  0.625- 250 1.44 284 1.44 239 1.44
  36  0.111  0.556  0.125- 280 1.44 251 1.44 240 1.44
  37  0.778  0.056  0.625- 252 1.44 288 1.44 238 1.44
  38  0.278  0.056  0.125- 219 1.44 253 1.44 241 1.44
  39  0.444  0.556  0.125- 243 1.44 218 1.44 254 1.44
  40  0.778  0.556  0.125- 255 1.44 245 1.44 220 1.44
  41  0.611  0.056  0.125- 256 1.44 242 1.44 221 1.44
  42  0.444  0.556  0.625- 274 1.44 248 1.44 257 1.44
  43  0.944  0.056  0.125- 217 1.44 244 1.44 258 1.44
  44  0.278  0.722  0.625- 246 1.44 259 1.44 223 1.44
  45  0.111  0.222  0.625- 224 1.44 260 1.44 247 1.44
  46  0.444  0.222  0.625- 261 1.44 226 1.44 249 1.44
  47  0.611  0.722  0.625- 248 1.44 225 1.44 262 1.44
  48  0.944  0.722  0.625- 250 1.44 222 1.44 263 1.44
  49  0.778  0.222  0.625- 264 1.44 227 1.44 252 1.44
  50  0.111  0.722  0.125- 251 1.44 228 1.44 265 1.44
  51  0.444  0.722  0.125- 254 1.44 266 1.44 231 1.44
  52  0.278  0.222  0.125- 230 1.44 267 1.44 253 1.44
  53  0.778  0.722  0.125- 255 1.44 232 1.44 268 1.44
  54  0.611  0.222  0.125- 269 1.44 233 1.44 256 1.44
  55  0.944  0.222  0.125- 229 1.44 270 1.44 258 1.44
  56  0.111  0.389  0.625- 236 1.44 271 1.44 260 1.44
  57  0.278  0.889  0.625- 272 1.44 259 1.44 235 1.44
  58  0.611  0.889  0.625- 262 1.44 273 1.44 238 1.44
  59  0.444  0.389  0.620- 261 1.44 274 1.44 237 1.44
  60  0.944  0.889  0.625- 263 1.44 234 1.44 275 1.44
  61  0.111  0.889  0.125- 241 1.44 265 1.44 276 1.44
  62  0.778  0.389  0.625- 277 1.44 239 1.44 264 1.44
  63  0.444  0.889  0.125- 266 1.44 278 1.44 242 1.44
  64  0.278  0.389  0.125- 243 1.44 267 1.44 279 1.44
  65  0.278  0.556  0.125- 254 1.44 279 1.44 280 1.44
  66  0.611  0.389  0.125- 281 1.44 269 1.44 245 1.44
  67  0.778  0.889  0.125- 268 1.44 244 1.44 282 1.44
  68  0.944  0.389  0.125- 283 1.44 240 1.44 270 1.44
  69  0.111  0.556  0.625- 246 1.44 284 1.44 271 1.44
  70  0.278  0.056  0.625- 249 1.44 285 1.44 272 1.44
  71  0.778  0.556  0.625- 286 1.44 277 1.44 250 1.44
  72  0.611  0.056  0.625- 287 1.44 273 1.44 252 1.44
  73  0.944  0.056  0.625- 247 1.44 275 1.44 288 1.44
  74  0.055  0.110  0.375- 186 1.43 146 1.44 158 1.44
  75  0.556  0.612  0.375- 160 1.44 182 1.46 147 1.46
  76  0.388  0.106  0.375- 148 1.42 159 1.42 181 1.44
  77  0.891  0.612  0.375- 183 1.43 149 1.43 161 1.43
  78  0.722  0.111  0.375- 150 1.43 184 1.43 162 1.43
  79  0.056  0.778  0.875- 163 1.44 191 1.44 151 1.44
  80  0.389  0.778  0.875- 152 1.44 187 1.44 164 1.44
  81  0.222  0.278  0.875- 165 1.44 153 1.44 188 1.44
  82  0.722  0.778  0.875- 190 1.44 154 1.44 167 1.44
  83  0.556  0.278  0.875- 166 1.44 189 1.44 155 1.44
  84  0.889  0.278  0.875- 168 1.44 192 1.44 156 1.44
  85  0.222  0.778  0.375- 170 1.43 157 1.43 193 1.43
  86  0.055  0.277  0.375- 198 1.43 169 1.44 158 1.44
  87  0.380  0.259  0.375- 159 1.40 195 1.40   1 1.68
  88  0.556  0.779  0.375- 171 1.43 194 1.44 160 1.44
  89  0.890  0.779  0.375- 196 1.42 172 1.42 161 1.44
  90  0.723  0.277  0.375- 162 1.43 173 1.44 197 1.44
  91  0.056  0.944  0.875- 175 1.44 163 1.44 203 1.44
  92  0.389  0.944  0.875- 177 1.44 200 1.44 164 1.44
  93  0.222  0.444  0.875- 165 1.44 174 1.44 199 1.44
  94  0.556  0.444  0.875- 202 1.44 166 1.44 176 1.44
  95  0.722  0.944  0.875- 201 1.44 167 1.44 180 1.44
  96  0.889  0.444  0.875- 205 1.44 178 1.44 168 1.44
  97  0.054  0.445  0.375- 169 1.42 211 1.42 179 1.44
  98  0.221  0.943  0.375- 181 1.43 170 1.43 204 1.43
  99  0.556  0.945  0.375- 184 1.43 171 1.43 206 1.44
 100  0.380  0.454  0.375- 182 1.40 207 1.40   1 1.68
 101  0.889  0.945  0.375- 186 1.43 210 1.43 172 1.44
 102  0.728  0.445  0.375- 173 1.42 209 1.42 183 1.44
 103  0.222  0.611  0.875- 174 1.44 212 1.44 187 1.44
 104  0.056  0.111  0.875- 188 1.44 175 1.44 216 1.44
 105  0.556  0.611  0.875- 176 1.44 185 1.44 190 1.44
 106  0.389  0.111  0.875- 189 1.44 213 1.44 177 1.44
 107  0.889  0.611  0.875- 214 1.44 191 1.44 178 1.44
 108  0.056  0.611  0.375- 149 1.43 179 1.43 193 1.43
 109  0.722  0.111  0.875- 215 1.44 192 1.44 180 1.44
 110  0.218  0.106  0.375- 146 1.42 195 1.42 181 1.44
 111  0.388  0.616  0.375- 194 1.42 182 1.42 208 1.44
 112  0.728  0.616  0.375- 196 1.42 147 1.42 183 1.44
 113  0.556  0.110  0.375- 184 1.43 148 1.44 197 1.44
 114  0.389  0.611  0.875- 185 1.44 174 1.44 152 1.44
 115  0.889  0.111  0.375- 150 1.43 186 1.43 198 1.43
 116  0.222  0.778  0.875- 200 1.44 187 1.44 151 1.44
 117  0.056  0.278  0.875- 188 1.44 199 1.44 156 1.44
 118  0.389  0.278  0.875- 202 1.44 189 1.44 153 1.44
 119  0.556  0.778  0.875- 190 1.44 152 1.44 201 1.44
 120  0.889  0.778  0.875- 154 1.44 191 1.44 203 1.44
 121  0.722  0.278  0.875- 155 1.44 205 1.44 192 1.44
 122  0.056  0.778  0.375- 204 1.43 161 1.43 193 1.43
 123  0.389  0.779  0.375- 194 1.42 206 1.42 157 1.44
 124  0.221  0.277  0.375- 158 1.44 195 1.46 207 1.46
 125  0.723  0.779  0.375- 210 1.43 196 1.44 160 1.44
 126  0.556  0.277  0.375- 197 1.44 159 1.46 209 1.46
 127  0.889  0.278  0.375- 198 1.43 162 1.43 211 1.44
 128  0.056  0.444  0.875- 199 1.44 212 1.44 168 1.44
 129  0.222  0.944  0.875- 213 1.44 163 1.44 200 1.44
 130  0.556  0.944  0.875- 164 1.44 215 1.44 201 1.44
 131  0.389  0.444  0.875- 202 1.44 165 1.44 185 1.44
 132  0.889  0.944  0.875- 203 1.44 167 1.44 216 1.44
 133  0.054  0.943  0.375- 146 1.42 172 1.42 204 1.44
 134  0.722  0.444  0.875- 166 1.44 214 1.44 205 1.44
 135  0.389  0.943  0.375- 148 1.42 206 1.42 170 1.44
 136  0.218  0.445  0.375- 169 1.42 207 1.42 208 1.44
 137  0.221  0.612  0.375- 208 1.43 179 1.43 157 1.43
 138  0.574  0.454  0.375- 147 1.40 209 1.40   1 1.68
 139  0.722  0.945  0.375- 150 1.43 210 1.43 171 1.43
 140  0.890  0.445  0.375- 173 1.42 211 1.42 149 1.44
 141  0.056  0.611  0.875- 178 1.44 212 1.44 151 1.44
 142  0.222  0.111  0.875- 153 1.44 213 1.44 175 1.44
 143  0.722  0.611  0.875- 176 1.44 214 1.44 154 1.44
 144  0.556  0.111  0.875- 155 1.44 177 1.44 215 1.44
 145  0.889  0.111  0.875- 156 1.44 216 1.44 180 1.44
 146  0.108  0.053  0.375- 110 1.42 133 1.42  74 1.44
 147  0.618  0.561  0.375- 138 1.40 112 1.42  75 1.46   1 2.59
 148  0.445  0.053  0.375-  76 1.42 135 1.42 113 1.44
 149  0.945  0.556  0.375- 108 1.43  77 1.43 140 1.44
 150  0.778  0.056  0.375-  78 1.43 115 1.43 139 1.43
 151  0.111  0.722  0.875- 141 1.44 116 1.44  79 1.44
 152  0.444  0.722  0.875-  80 1.44 119 1.44 114 1.44
 153  0.278  0.222  0.875- 142 1.44  81 1.44 118 1.44
 154  0.778  0.722  0.875- 120 1.44  82 1.44 143 1.44
 155  0.611  0.222  0.875- 121 1.44 144 1.44  83 1.44
 156  0.944  0.222  0.875- 145 1.44  84 1.44 117 1.44
 157  0.278  0.723  0.375-  85 1.43 137 1.43 123 1.44
 158  0.110  0.222  0.375- 124 1.44  74 1.44  86 1.44
 159  0.443  0.215  0.375-  87 1.40  76 1.42 126 1.46   1 2.59
 160  0.612  0.723  0.375-  75 1.44 125 1.44  88 1.44
 161  0.945  0.723  0.375- 122 1.43  77 1.43  89 1.44
 162  0.778  0.222  0.375-  90 1.43 127 1.43  78 1.43
 163  0.111  0.889  0.875-  91 1.44  79 1.44 129 1.44
 164  0.444  0.889  0.875- 130 1.44  92 1.44  80 1.44
 165  0.278  0.389  0.875-  93 1.44  81 1.44 131 1.44
 166  0.611  0.389  0.875- 134 1.44  83 1.44  94 1.44
 167  0.778  0.889  0.875-  95 1.44 132 1.44  82 1.44
 168  0.944  0.389  0.875-  84 1.44  96 1.44 128 1.44
 169  0.108  0.389  0.375- 136 1.42  97 1.42  86 1.44
 170  0.278  0.888  0.375-  85 1.43  98 1.43 135 1.44
 171  0.612  0.889  0.375-  88 1.43  99 1.43 139 1.43
 172  0.944  0.889  0.375- 133 1.42  89 1.42 101 1.44
 173  0.781  0.389  0.375- 102 1.42 140 1.42  90 1.44
 174  0.278  0.556  0.875- 103 1.44  93 1.44 114 1.44
 175  0.111  0.056  0.875-  91 1.44 104 1.44 142 1.44
 176  0.611  0.556  0.875- 143 1.44 105 1.44  94 1.44
 177  0.444  0.056  0.875-  92 1.44 144 1.44 106 1.44
 178  0.944  0.556  0.875-  96 1.44 141 1.44 107 1.44
 179  0.111  0.556  0.375- 108 1.43 137 1.43  97 1.44
 180  0.778  0.056  0.875- 145 1.44  95 1.44 109 1.44
 181  0.276  0.053  0.375-  98 1.43 110 1.44  76 1.44
 182  0.443  0.561  0.375- 100 1.40 111 1.42  75 1.46   1 2.59
 183  0.781  0.557  0.375-  77 1.43 112 1.44 102 1.44
 184  0.612  0.055  0.375- 113 1.43  99 1.43  78 1.43
 185  0.444  0.556  0.875- 114 1.44 105 1.44 131 1.44
 186  0.944  0.055  0.375-  74 1.43 101 1.43 115 1.43
 187  0.278  0.722  0.875-  80 1.44 116 1.44 103 1.44
 188  0.111  0.222  0.875- 117 1.44 104 1.44  81 1.44
 189  0.444  0.222  0.875- 106 1.44  83 1.44 118 1.44
 190  0.611  0.722  0.875-  82 1.44 119 1.44 105 1.44
 191  0.944  0.722  0.875- 120 1.44  79 1.44 107 1.44
 192  0.778  0.222  0.875- 109 1.44  84 1.44 121 1.44
 193  0.111  0.722  0.375- 108 1.43  85 1.43 122 1.43
 194  0.445  0.725  0.375- 111 1.42 123 1.42  88 1.44
 195  0.272  0.215  0.375-  87 1.40 110 1.42 124 1.46   1 2.59
 196  0.781  0.725  0.375- 112 1.42  89 1.42 125 1.44
 197  0.612  0.222  0.375- 126 1.44  90 1.44 113 1.44
 198  0.944  0.222  0.375-  86 1.43 127 1.43 115 1.43
 199  0.111  0.389  0.875- 128 1.44 117 1.44  93 1.44
 200  0.278  0.889  0.875-  92 1.44 116 1.44 129 1.44
 201  0.611  0.889  0.875-  95 1.44 130 1.44 119 1.44
 202  0.444  0.389  0.875- 131 1.44  94 1.44 118 1.44
 203  0.944  0.889  0.875- 132 1.44 120 1.44  91 1.44
 204  0.111  0.888  0.375- 122 1.43  98 1.43 133 1.44
 205  0.778  0.389  0.875-  96 1.44 121 1.44 134 1.44
 206  0.445  0.889  0.375- 123 1.42 135 1.42  99 1.44
 207  0.272  0.390  0.375- 100 1.40 136 1.42 124 1.46   1 2.59
 208  0.276  0.557  0.375- 137 1.43 111 1.44 136 1.44
 209  0.618  0.390  0.375- 138 1.40 102 1.42 126 1.46   1 2.59
 210  0.778  0.889  0.375- 125 1.43 101 1.43 139 1.43
 211  0.944  0.389  0.375- 140 1.42  97 1.42 127 1.44
 212  0.111  0.556  0.875- 128 1.44 141 1.44 103 1.44
 213  0.278  0.056  0.875- 129 1.44 106 1.44 142 1.44
 214  0.778  0.556  0.875- 107 1.44 134 1.44 143 1.44
 215  0.611  0.056  0.875- 109 1.44 130 1.44 144 1.44
 216  0.944  0.056  0.875- 145 1.44 132 1.44 104 1.44
 217  0.056  0.111  0.125-  43 1.44   2 1.44  14 1.44
 218  0.556  0.611  0.125-  16 1.44  39 1.44   3 1.44
 219  0.389  0.111  0.125-   4 1.44  38 1.44  15 1.44
 220  0.889  0.611  0.125-   5 1.44  17 1.44  40 1.44
 221  0.722  0.111  0.125-   6 1.44  18 1.44  41 1.44
 222  0.056  0.778  0.625-   7 1.44  19 1.44  48 1.44
 223  0.389  0.778  0.625-  20 1.44  44 1.44   8 1.44
 224  0.222  0.278  0.625-  45 1.44   9 1.44  21 1.44
 225  0.722  0.778  0.625-  23 1.44  10 1.44  47 1.44
 226  0.556  0.278  0.625-  11 1.44  46 1.44  22 1.44
 227  0.889  0.278  0.625-  49 1.44  12 1.44  24 1.44
 228  0.222  0.778  0.125-  50 1.44  26 1.44  13 1.44
 229  0.056  0.278  0.125-  55 1.44  25 1.44  14 1.44
 230  0.389  0.277  0.127-  52 1.44  15 1.44  28 1.44
 231  0.556  0.778  0.125-  27 1.44  51 1.44  16 1.44
 232  0.889  0.778  0.125-  29 1.44  17 1.44  53 1.44
 233  0.722  0.278  0.125-  18 1.44  30 1.44  54 1.44
 234  0.056  0.944  0.625-  60 1.44  19 1.44  32 1.44
 235  0.389  0.944  0.625-  20 1.44  57 1.44  34 1.44
 236  0.222  0.444  0.625-  56 1.44  31 1.44  21 1.44
 237  0.556  0.445  0.623-  22 1.44  33 1.44  59 1.44
 238  0.722  0.944  0.625-  37 1.44  23 1.44  58 1.44
 239  0.889  0.444  0.625-  24 1.44  35 1.44  62 1.44
 240  0.056  0.444  0.125-  68 1.44  36 1.44  25 1.44
 241  0.222  0.944  0.125-  61 1.44  26 1.44  38 1.44
 242  0.556  0.944  0.125-  27 1.44  41 1.44  63 1.44
 243  0.389  0.445  0.127-  39 1.44  64 1.44  28 1.44
 244  0.889  0.944  0.125-  43 1.44  67 1.44  29 1.44
 245  0.722  0.444  0.125-  30 1.44  40 1.44  66 1.44
 246  0.222  0.611  0.625-  69 1.44  44 1.44  31 1.44
 247  0.056  0.111  0.625-  73 1.44  32 1.44  45 1.44
 248  0.556  0.611  0.625-  47 1.44  42 1.44  33 1.44
 249  0.389  0.111  0.625-  34 1.44  70 1.44  46 1.44
 250  0.889  0.611  0.625-  35 1.44  48 1.44  71 1.44
 251  0.056  0.611  0.125-  50 1.44   5 1.44  36 1.44
 252  0.722  0.111  0.625-  37 1.44  49 1.44  72 1.44
 253  0.222  0.111  0.125-   2 1.44  38 1.44  52 1.44
 254  0.389  0.611  0.125-  51 1.44  65 1.44  39 1.44
 255  0.722  0.611  0.125-  53 1.44  40 1.44   3 1.44
 256  0.556  0.111  0.125-  41 1.44   4 1.44  54 1.44
 257  0.389  0.611  0.625-   8 1.44  31 1.44  42 1.44
 258  0.889  0.111  0.125-   6 1.44  43 1.44  55 1.44
 259  0.222  0.778  0.625-   7 1.44  57 1.44  44 1.44
 260  0.056  0.278  0.625-  12 1.44  56 1.44  45 1.44
 261  0.389  0.277  0.623-   9 1.44  46 1.44  59 1.44
 262  0.556  0.778  0.625-  58 1.44   8 1.44  47 1.44
 263  0.889  0.778  0.625-  60 1.44  48 1.44  10 1.44
 264  0.722  0.278  0.625-  49 1.44  62 1.44  11 1.44
 265  0.056  0.778  0.125-  50 1.44  61 1.44  17 1.44
 266  0.389  0.778  0.125-  63 1.44  13 1.44  51 1.44
 267  0.222  0.278  0.125-  14 1.44  52 1.44  64 1.44
 268  0.722  0.778  0.125-  67 1.44  53 1.44  16 1.44
 269  0.556  0.278  0.125-  54 1.44  15 1.44  66 1.44
 270  0.889  0.278  0.125-  18 1.44  55 1.44  68 1.44
 271  0.056  0.444  0.625-  24 1.44  69 1.44  56 1.44
 272  0.222  0.944  0.625-  19 1.44  57 1.44  70 1.44
 273  0.556  0.944  0.625-  58 1.44  72 1.44  20 1.44
 274  0.389  0.445  0.623-  42 1.44  21 1.44  59 1.44
 275  0.889  0.944  0.625-  73 1.44  23 1.44  60 1.44
 276  0.056  0.944  0.125-  29 1.44  61 1.44   2 1.44
 277  0.722  0.444  0.625-  62 1.44  71 1.44  22 1.44
 278  0.389  0.944  0.125-  63 1.44  26 1.44   4 1.44
 279  0.222  0.444  0.125-  25 1.44  65 1.44  64 1.44
 280  0.222  0.611  0.125-  36 1.44  13 1.44  65 1.44
 281  0.556  0.445  0.127-  66 1.44   3 1.44  28 1.44
 282  0.722  0.944  0.125-   6 1.44  67 1.44  27 1.44
 283  0.889  0.444  0.125-  68 1.44   5 1.44  30 1.44
 284  0.056  0.611  0.625-   7 1.44  35 1.44  69 1.44
 285  0.222  0.111  0.625-  32 1.44  70 1.44   9 1.44
 286  0.722  0.611  0.625-  10 1.44  71 1.44  33 1.44
 287  0.556  0.111  0.625-  72 1.44  34 1.44  11 1.44
 288  0.889  0.111  0.625-  37 1.44  73 1.44  12 1.44
 
  LATTYP: Found a hexagonal cell.
 ALAT       =    14.9363141462
 C/A-ratio  =     0.8932107448
  
  Lattice vectors:
  
 A1 = (  14.9363141462,   0.0000000000,   0.0000000000)
 A2 = (  -7.4681570731,  12.9352274895,  -0.0000000000)
 A3 = (   0.0000000000,   0.0000000000,  13.3412762838)


Analysis of symmetry for initial positions (statically):
=====================================================================
 Subroutine PRICEL returns:
 Original cell was already a primitive cell.
 

 Routine SETGRP: Setting up the symmetry group for a 
 hexagonal supercell.


 Subroutine GETGRP returns: Found 12 space group operations
 (whereof  1 operations were pure point group operations)
 out of a pool of 24 trial point group operations.


The static configuration has the point symmetry C_1 .
 The point group associated with its full space group is D_3h.


Analysis of symmetry for dynamics (positions and initial velocities):
=====================================================================
 Subroutine PRICEL returns:
 Original cell was already a primitive cell.
 

 Routine SETGRP: Setting up the symmetry group for a 
 hexagonal supercell.


 Subroutine GETGRP returns: Found 12 space group operations
 (whereof  1 operations were pure point group operations)
 out of a pool of 24 trial point group operations.


The dynamic configuration has the point symmetry C_1 .
 The point group associated with its full space group is D_3h.


Analysis of structural, dynamic, and magnetic symmetry:
=====================================================================
 Subroutine PRICEL returns:
 Original cell was already a primitive cell.
 

 Routine SETGRP: Setting up the symmetry group for a 
 hexagonal supercell.


 Subroutine GETGRP returns: Found 12 space group operations
 (whereof  1 operations were pure point group operations)
 out of a pool of 24 trial point group operations.


The overall configuration has the point symmetry C_1 .
 The point group associated with its full space group is D_3h.


 Subroutine INISYM returns: Found 12 space group operations
 (whereof  1 operations are pure point group operations),
 and found     1 'primitive' translations


----------------------------------------------------------------------------------------

                                     Primitive cell                                     

  volume of cell :    2577.5962

  direct lattice vectors                    reciprocal lattice vectors
    14.936314146  0.000000000  0.000000000     0.066950922  0.038654133 -0.000000000
    -7.468157073 12.935227490 -0.000000000     0.000000000  0.077308265 -0.000000000
     0.000000000  0.000000000 13.341276284     0.000000000  0.000000000  0.074955348

  length of vectors
    14.936314146 14.936314146 13.341276284     0.077308265  0.077308265  0.074955348

  position of ions in fractional coordinates (direct lattice)
     0.444444444  0.388888889  0.375000000
     0.111095398  0.055540084  0.124780782
     0.611133087  0.555581801  0.125233037
     0.444444686  0.055540084  0.124780782
     0.944449730  0.555556428  0.125059717
     0.777777778  0.055555556  0.124790353
     0.111111111  0.722222222  0.624916425
     0.444444686  0.722237935  0.625219218
     0.277751532  0.222200247  0.624766963
     0.777793249  0.722237935  0.625219218
     0.611118215  0.222215118  0.625326763
     0.944439951  0.222220372  0.625174490
     0.277776905  0.722226634  0.125059717
     0.111096902  0.222215118  0.124673237
     0.444448714  0.222200247  0.125233037
     0.611118215  0.722236431  0.124673237
     0.944449730  0.722226634  0.125059717
     0.777780421  0.222220372  0.124825510
     0.111106699  0.888883604  0.624940283
     0.444446287  0.888889810  0.625008453
     0.277751532  0.388884619  0.624766963
     0.611133087  0.388884619  0.624766963
     0.777780421  0.888893382  0.625174490
     0.944443523  0.388887046  0.625008453
     0.111095398  0.388888647  0.124780782
     0.277776905  0.888883604  0.125059717
     0.611112961  0.888893382  0.124825510
     0.444444444  0.388888889  0.129799854
     0.944443523  0.888889810  0.124991547
     0.777793249  0.388888647  0.124780782
     0.277769762  0.555563571  0.625056571
     0.111095398  0.055540084  0.625219218
     0.611133087  0.555581801  0.624766963
     0.444444686  0.055540084  0.625219218
     0.944449730  0.555556428  0.624940283
     0.111106699  0.555556428  0.125059717
     0.777777778  0.055555556  0.625209647
     0.277769762  0.055539524  0.124943429
     0.444448714  0.555581801  0.125233037
     0.777793809  0.555563571  0.124943429
     0.611112961  0.055552912  0.124825510
     0.444448714  0.555581801  0.624766963
     0.944439951  0.055552912  0.124825510
     0.277776905  0.722226634  0.624940283
     0.111096902  0.222215118  0.625326763
     0.444448714  0.222200247  0.624766963
     0.611118215  0.722236431  0.625326763
     0.944449730  0.722226634  0.624940283
     0.777780421  0.222220372  0.625174490
     0.111111111  0.722222222  0.125083575
     0.444444686  0.722237935  0.124780782
     0.277751532  0.222200247  0.125233037
     0.777793249  0.722237935  0.124780782
     0.611118215  0.222215118  0.124673237
     0.944439951  0.222220372  0.124825510
     0.111095398  0.388888647  0.625219218
     0.277776905  0.888883604  0.624940283
     0.611112961  0.888893382  0.625174490
     0.444444444  0.388888889  0.620200146
     0.944443523  0.888889810  0.625008453
     0.111106699  0.888883604  0.125059717
     0.777793249  0.388888647  0.625219218
     0.444446287  0.888889810  0.124991547
     0.277751532  0.388884619  0.125233037
     0.277769762  0.555563571  0.124943429
     0.611133087  0.388884619  0.125233037
     0.777780421  0.888893382  0.124825510
     0.944443523  0.388887046  0.124991547
     0.111106699  0.555556428  0.624940283
     0.277769762  0.055539524  0.625056571
     0.777793809  0.555563571  0.625056571
     0.611112961  0.055552912  0.625174490
     0.944439951  0.055552912  0.625174490
     0.054566154  0.110440292  0.375000000
     0.556107659  0.612215318  0.375000000
     0.387883995  0.105525285  0.375000000
     0.890810656  0.612071995  0.375000000
     0.722395380  0.110937953  0.375000000
     0.055554933  0.777778400  0.875000000
     0.388889431  0.777778284  0.875000000
     0.222225298  0.277779316  0.875000000
     0.722222810  0.777778659  0.875000000
     0.555554018  0.277779316  0.875000000
     0.888889786  0.277779572  0.875000000
     0.221855163  0.777594248  0.375000000
     0.054566154  0.277459195  0.375000000
     0.379683002  0.259366003  0.375000000
     0.555874139  0.778767180  0.375000000
     0.890451055  0.779038967  0.375000000
     0.722893041  0.277459195  0.375000000
     0.055555049  0.944444480  0.875000000
     0.388889431  0.944444480  0.875000000
     0.222224870  0.444441119  0.875000000
     0.555539194  0.444436264  0.875000000
     0.722222155  0.944444310  0.875000000
     0.888888853  0.444443903  0.875000000
     0.054294367  0.444745422  0.375000000
     0.221261339  0.942522678  0.375000000
     0.555806847  0.944570090  0.375000000
     0.379683002  0.453650332  0.375000000
     0.888763243  0.944570090  0.375000000
     0.727808048  0.445449338  0.375000000
     0.222223750  0.611109584  0.875000000
     0.055554674  0.111110523  0.875000000
     0.555554018  0.611108035  0.875000000
     0.388892214  0.111117084  0.875000000
     0.888885834  0.611109584  0.875000000
     0.055739085  0.611478170  0.375000000
     0.722222155  0.111111178  0.875000000
     0.217641290  0.105525285  0.375000000
     0.387883995  0.615692043  0.375000000
     0.727808048  0.615692043  0.375000000
     0.555874139  0.110440292  0.375000000
     0.388892214  0.611108464  0.875000000
     0.888542573  0.110937953  0.375000000
     0.222223467  0.777778400  0.875000000
     0.055554674  0.277777485  0.875000000
     0.388897069  0.277794139  0.875000000
     0.555555849  0.777778659  0.875000000
     0.888888853  0.777778284  0.875000000
     0.722222810  0.277777485  0.875000000
     0.055739085  0.777594248  0.375000000
     0.388587911  0.779038967  0.375000000
     0.221118015  0.277225674  0.375000000
     0.722893041  0.778767180  0.375000000
     0.556107659  0.277225674  0.375000000
     0.888763243  0.277526487  0.375000000
     0.055555049  0.444443903  0.875000000
     0.222223750  0.944447499  0.875000000
     0.555553761  0.944443547  0.875000000
     0.388897069  0.444436264  0.875000000
     0.888889786  0.944443547  0.875000000
     0.054294367  0.942882278  0.375000000
     0.722216249  0.444441119  0.875000000
     0.388587911  0.942882278  0.375000000
     0.217641290  0.445449338  0.375000000
     0.221261339  0.612071995  0.375000000
     0.573967330  0.453650332  0.375000000
     0.722395380  0.944790760  0.375000000
     0.890451055  0.444745422  0.375000000
     0.055554933  0.611109867  0.875000000
     0.222224870  0.111117084  0.875000000
     0.722216249  0.611108464  0.875000000
     0.555555849  0.111110523  0.875000000
     0.888889023  0.111111178  0.875000000
     0.108139357  0.052815884  0.375000000
     0.618172273  0.561334081  0.375000000
     0.444676527  0.052815884  0.375000000
     0.945287087  0.555806386  0.375000000
     0.777777778  0.055555556  0.375000000
     0.111111111  0.722222222  0.875000000
     0.444451802  0.722236657  0.875000000
     0.277754901  0.222208307  0.875000000
     0.777784855  0.722236657  0.875000000
     0.611122715  0.222210618  0.875000000
     0.944435326  0.222216530  0.875000000
     0.277526947  0.722814034  0.375000000
     0.110156616  0.221744975  0.375000000
     0.443161807  0.215161060  0.375000000
     0.611588359  0.723176717  0.375000000
     0.945287087  0.722814034  0.375000000
     0.777909318  0.221812689  0.375000000
     0.111106932  0.888888263  0.875000000
     0.444450940  0.888892137  0.875000000
     0.277754901  0.388879927  0.875000000
     0.611125026  0.388879927  0.875000000
     0.777781204  0.888898007  0.875000000
     0.944441197  0.388882394  0.875000000
     0.108139357  0.388656806  0.375000000
     0.277526947  0.888046247  0.375000000
     0.611520644  0.889429961  0.375000000
     0.944283269  0.889050064  0.375000000
     0.780517449  0.388656806  0.375000000
     0.277774968  0.555558366  0.875000000
     0.111096676  0.055548479  0.875000000
     0.611125026  0.555578432  0.875000000
     0.444451802  0.055548479  0.875000000
     0.944445070  0.555552002  0.875000000
     0.110519299  0.555806386  0.375000000
     0.777777778  0.055555556  0.875000000
     0.276361667  0.052723335  0.375000000
     0.443161807  0.561334081  0.375000000
     0.780609999  0.556971666  0.375000000
     0.611520644  0.055424016  0.375000000
     0.444453406  0.555578432  0.875000000
     0.943903372  0.055424016  0.375000000
     0.277781331  0.722226401  0.875000000
     0.111087903  0.222210618  0.875000000
     0.444453406  0.222208307  0.875000000
     0.611122715  0.722245430  0.875000000
     0.944445070  0.722226401  0.875000000
     0.777781204  0.222216530  0.875000000
     0.111111111  0.722222222  0.375000000
     0.444676527  0.725193976  0.375000000
     0.271999253  0.215161060  0.375000000
     0.780517449  0.725193976  0.375000000
     0.611588359  0.221744975  0.375000000
     0.943903372  0.221812689  0.375000000
     0.111096676  0.388881531  0.875000000
     0.277781331  0.888888263  0.875000000
     0.611116803  0.888898007  0.875000000
     0.444444444  0.388888889  0.875000000
     0.944441197  0.888892137  0.875000000
     0.110519299  0.888046247  0.375000000
     0.777784855  0.388881531  0.875000000
     0.444766794  0.889050064  0.375000000
     0.271999253  0.390171526  0.375000000
     0.276361667  0.556971666  0.375000000
     0.618172273  0.390171526  0.375000000
     0.777909318  0.889429961  0.375000000
     0.944283269  0.388566539  0.375000000
     0.111106932  0.555552002  0.875000000
     0.277774968  0.055549935  0.875000000
     0.777783398  0.555558366  0.875000000
     0.611116803  0.055552129  0.875000000
     0.944435326  0.055552129  0.875000000
     0.055526692  0.111089852  0.124797357
     0.555595780  0.611191559  0.125094193
     0.388859844  0.111021544  0.124952060
     0.888919818  0.611126576  0.125035399
     0.722226309  0.111107024  0.124846989
     0.055557369  0.777775964  0.624909939
     0.388888179  0.777794339  0.625016173
     0.222141774  0.277737554  0.624905807
     0.722243481  0.777806642  0.625202643
     0.555595780  0.277737554  0.624905807
     0.888885776  0.277771552  0.625068860
     0.222218595  0.777775964  0.125090061
     0.055526692  0.277770173  0.124797357
     0.388741196  0.277482392  0.126635762
     0.555563161  0.777806642  0.124797357
     0.888906160  0.777794339  0.124983827
     0.722243481  0.277770173  0.124797357
     0.055538994  0.944427173  0.625016173
     0.388888179  0.944427173  0.625016173
     0.222161700  0.444473490  0.625047940
     0.555850941  0.444592137  0.623364238
     0.722226309  0.944452619  0.625153011
     0.888906160  0.444445155  0.625016173
     0.055538994  0.444445155  0.124983827
     0.222206758  0.944413515  0.125035399
     0.555561781  0.944447557  0.124931140
     0.388741196  0.444592137  0.126635762
     0.888885776  0.944447557  0.124931140
     0.722311790  0.444473490  0.124952060
     0.222206758  0.611126576  0.624964601
     0.055526692  0.111089852  0.625202643
     0.555595780  0.611191559  0.624905807
     0.388859844  0.111021544  0.625047940
     0.888919818  0.611126576  0.624964601
     0.055557369  0.611114739  0.125090061
     0.722226309  0.111107024  0.625153011
     0.222161700  0.111021544  0.124952060
     0.388859844  0.611171633  0.124952060
     0.722311790  0.611171633  0.124952060
     0.555563161  0.111089852  0.124797357
     0.388859844  0.611171633  0.625047940
     0.888880715  0.111107024  0.124846989
     0.222218595  0.777775964  0.624909939
     0.055526692  0.277770173  0.625202643
     0.388741196  0.277482392  0.623364238
     0.555563161  0.777806642  0.625202643
     0.888906160  0.777794339  0.625016173
     0.722243481  0.277770173  0.625202643
     0.055557369  0.777775964  0.125090061
     0.388888179  0.777794339  0.124983827
     0.222141774  0.277737554  0.125094193
     0.722243481  0.777806642  0.124797357
     0.555595780  0.277737554  0.125094193
     0.888885776  0.277771552  0.124931140
     0.055538994  0.444445155  0.625016173
     0.222206758  0.944413515  0.624964601
     0.555561781  0.944447557  0.625068860
     0.388741196  0.444592137  0.623364238
     0.888885776  0.944447557  0.625068860
     0.055538994  0.944427173  0.124983827
     0.722311790  0.444473490  0.625047940
     0.388888179  0.944427173  0.124983827
     0.222161700  0.444473490  0.124952060
     0.222206758  0.611126576  0.125035399
     0.555850941  0.444592137  0.126635762
     0.722226309  0.944452619  0.124846989
     0.888906160  0.444445155  0.124983827
     0.055557369  0.611114739  0.624909939
     0.222161700  0.111021544  0.625047940
     0.722311790  0.611171633  0.625047940
     0.555563161  0.111089852  0.625202643
     0.888880715  0.111107024  0.625153011

  ion indices of the primitive-cell ions
   primitive index   ion index
                 1           1
                 2           2
                 3           3
                 4           4
                 5           5
                 6           6
                 7           7
                 8           8
                 9           9
                10          10
                11          11
                12          12
                13          13
                14          14
                15          15
                16          16
                17          17
                18          18
                19          19
                20          20
                21          21
                22          22
                23          23
                24          24
                25          25
                26          26
                27          27
                28          28
                29          29
                30          30
                31          31
                32          32
                33          33
                34          34
                35          35
                36          36
                37          37
                38          38
                39          39
                40          40
                41          41
                42          42
                43          43
                44          44
                45          45
                46          46
                47          47
                48          48
                49          49
                50          50
                51          51
                52          52
                53          53
                54          54
                55          55
                56          56
                57          57
                58          58
                59          59
                60          60
                61          61
                62          62
                63          63
                64          64
                65          65
                66          66
                67          67
                68          68
                69          69
                70          70
                71          71
                72          72
                73          73
                74          74
                75          75
                76          76
                77          77
                78          78
                79          79
                80          80
                81          81
                82          82
                83          83
                84          84
                85          85
                86          86
                87          87
                88          88
                89          89
                90          90
                91          91
                92          92
                93          93
                94          94
                95          95
                96          96
                97          97
                98          98
                99          99
               100         100
               101         101
               102         102
               103         103
               104         104
               105         105
               106         106
               107         107
               108         108
               109         109
               110         110
               111         111
               112         112
               113         113
               114         114
               115         115
               116         116
               117         117
               118         118
               119         119
               120         120
               121         121
               122         122
               123         123
               124         124
               125         125
               126         126
               127         127
               128         128
               129         129
               130         130
               131         131
               132         132
               133         133
               134         134
               135         135
               136         136
               137         137
               138         138
               139         139
               140         140
               141         141
               142         142
               143         143
               144         144
               145         145
               146         146
               147         147
               148         148
               149         149
               150         150
               151         151
               152         152
               153         153
               154         154
               155         155
               156         156
               157         157
               158         158
               159         159
               160         160
               161         161
               162         162
               163         163
               164         164
               165         165
               166         166
               167         167
               168         168
               169         169
               170         170
               171         171
               172         172
               173         173
               174         174
               175         175
               176         176
               177         177
               178         178
               179         179
               180         180
               181         181
               182         182
               183         183
               184         184
               185         185
               186         186
               187         187
               188         188
               189         189
               190         190
               191         191
               192         192
               193         193
               194         194
               195         195
               196         196
               197         197
               198         198
               199         199
               200         200
               201         201
               202         202
               203         203
               204         204
               205         205
               206         206
               207         207
               208         208
               209         209
               210         210
               211         211
               212         212
               213         213
               214         214
               215         215
               216         216
               217         217
               218         218
               219         219
               220         220
               221         221
               222         222
               223         223
               224         224
               225         225
               226         226
               227         227
               228         228
               229         229
               230         230
               231         231
               232         232
               233         233
               234         234
               235         235
               236         236
               237         237
               238         238
               239         239
               240         240
               241         241
               242         242
               243         243
               244         244
               245         245
               246         246
               247         247
               248         248
               249         249
               250         250
               251         251
               252         252
               253         253
               254         254
               255         255
               256         256
               257         257
               258         258
               259         259
               260         260
               261         261
               262         262
               263         263
               264         264
               265         265
               266         266
               267         267
               268         268
               269         269
               270         270
               271         271
               272         272
               273         273
               274         274
               275         275
               276         276
               277         277
               278         278
               279         279
               280         280
               281         281
               282         282
               283         283
               284         284
               285         285
               286         286
               287         287
               288         288

----------------------------------------------------------------------------------------

 
 
 KPOINTS: KPOINTS file                            

Automatic generation of k-mesh.
 Grid dimensions read from file:
 generate k-points for:    1    1    1

 Generating k-lattice:

  Cartesian coordinates                     Fractional coordinates (reciprocal lattice)
     0.066950922  0.038654133 -0.000000000     1.000000000  0.000000000  0.000000000
     0.000000000  0.077308265 -0.000000000     0.000000000  1.000000000  0.000000000
     0.000000000  0.000000000  0.074955348     0.000000000  0.000000000  1.000000000

  Length of vectors
     0.077308265  0.077308265  0.074955348

  Shift w.r.t. Gamma in fractional coordinates (k-lattice)
     0.000000000  0.000000000  0.000000000

 
 Subroutine IBZKPT returns following result:
 ===========================================
 
 Found      1 irreducible k-points:
 
 Following reciprocal coordinates:
            Coordinates               Weight
  0.000000  0.000000  0.000000      1.000000
 
 Following cartesian coordinates:
            Coordinates               Weight
  0.000000  0.000000  0.000000      1.000000
 
 
 Subroutine IBZKPT_HF returns following result:
 ==============================================
 
 Found      1 k-points in 1st BZ
 the following      1 k-points will be used (e.g. in the exchange kernel)
 Following reciprocal coordinates:   # in IRBZ
  0.000000  0.000000  0.000000    1.00000000   1 t-inv F


--------------------------------------------------------------------------------------------------------




 Dimension of arrays:
   k-points           NKPTS =      1   k-points in BZ     NKDIM =      1   number of bands    NBANDS=    884
   number of dos      NEDOS =    301   number of ions     NIONS =    288
   non local maximal  LDIM  =      4   non local SUM 2l+1 LMDIM =      8
   total plane-waves  NPLWV = 564480
   max r-space proj   IRMAX =   1937   max aug-charges    IRDMAX=  68377
   dimension x,y,z NGX =    84 NGY =   84 NGZ =   80
   dimension x,y,z NGXF=   168 NGYF=  168 NGZF=  160
   support grid    NGXF=   336 NGYF=  336 NGZF=  320
   ions per type =               1 144 143
   NGX,Y,Z   is equivalent  to a cutoff of   9.35,  9.35,  9.97 a.u.
   NGXF,Y,Z  is equivalent  to a cutoff of  18.70, 18.70, 19.94 a.u.

 SYSTEM =  unknown system                          
 POSCAR =  Species order: X N B                    

 Startparameter for this run:
   NWRITE =      2    write-flag & timer
   PREC   = normal    normal or accurate (medium, high low for compatibility)
   ISTART =      0    job   : 0-new  1-cont  2-samecut
   ICHARG =      2    charge: 1-file 2-atom 10-const
   ISPIN  =      2    spin polarized calculation?
   LNONCOLLINEAR =      F non collinear calculations
   LSORBIT =      F    spin-orbit coupling
   INIWAV =      1    electr: 0-lowe 1-rand  2-diag
   LASPH  =      F    aspherical Exc in radial PAW
 Electronic Relaxation 1
   ENCUT  =  500.0 eV  36.75 Ry    6.06 a.u.  27.23 27.23 24.32*2*pi/ulx,y,z
   ENINI  =  500.0     initial cutoff
   ENAUG  =  627.1 eV  augmentation charge cutoff
   NELM   =     60;   NELMIN=  4; NELMDL= -5     # of ELM steps 
   EDIFF  = 0.1E-03   stopping-criterion for ELM
   LREAL  =      T    real-space projection
   NLSPLINE    = F    spline interpolate recip. space projectors
   LCOMPAT=      F    compatible to vasp.4.4
   GGA_COMPAT  = T    GGA compatible to vasp.4.4-vasp.4.6
   LMAXPAW     = -100 max onsite density
   LMAXMIX     =    2 max onsite mixed and CHGCAR
   VOSKOWN=      0    Vosko Wilk Nusair interpolation
   ROPT   =   -0.00050  -0.00050  -0.00050
 Ionic relaxation
   EDIFFG = -.1E-01   stopping-criterion for IOM
   NSW    =    900    number of steps for IOM
   NBLOCK =      1;   KBLOCK =    900    inner block; outer block 
   IBRION =      1    ionic relax: 0-MD 1-quasi-New 2-CG
   NFREE  =      0    steps in history (QN), initial steepest desc. (CG)
   ISIF   =      2    stress and relaxation
   IWAVPR =     11    prediction:  0-non 1-charg 2-wave 3-comb
   ISYM   =      3    0-nonsym 1-usesym 2-fastsym
   LCORR  =      T    Harris-Foulkes like correction to forces

   POTIM  = 0.3000    time-step for ionic-motion
   TEIN   =    0.0    initial temperature
   TEBEG  =    0.0;   TEEND  =   0.0 temperature during run
   SMASS  =  -3.00    Nose mass-parameter (am)
   estimated Nose-frequenzy (Omega)   =  0.10E-29 period in steps = 0.21E+47 mass=  -0.510E-26a.u.
   SCALEE = 1.0000    scale energy and forces
   NPACO  =    256;   APACO  = 10.0  distance and # of slots for P.C.
   PSTRESS=    0.0 pullay stress

  Mass of Ions in am
   POMASS =  26.98 14.00 10.81
  Ionic Valenz
   ZVAL   =   3.00  5.00  3.00
  Atomic Wigner-Seitz radii
   RWIGS  =  -1.00 -1.00 -1.00
  virtual crystal weights 
   VCA    =   1.00  1.00  1.00
   NELECT =    1152.0000    total number of electrons
   NUPDOWN=       0.0000    fix difference up-down

 DOS related values:
   EMIN   =  10.00;   EMAX   =-10.00  energy-range for DOS
   EFERMI =   0.00;   METHOD = LEGACY      
   ISMEAR =    -2;   SIGMA  =   0.00  broadening in eV -4-tet -1-fermi 0-gaus

 Electronic relaxation 2 (details)
   IALGO  =     38    algorithm
   LDIAG  =      T    sub-space diagonalisation (order eigenvalues)
   LSUBROT=      F    optimize rotation matrix (better conditioning)
   TURBO    =      0    0=normal 1=particle mesh
   IRESTART =      0    0=no restart 2=restart with 2 vectors
   NREBOOT  =      0    no. of reboots
   NMIN     =      0    reboot dimension
   EREF     =   0.00    reference energy to select bands
   IMIX   =      1    mixing-type and parameters
     AMIX     =   0.40;   BMIX     =  1.00
     AMIX_MAG =   1.60;   BMIX_MAG =  1.00
     AMIN     =   0.10
     WC   =   100.;   INIMIX=   1;  MIXPRE=   1;  MAXMIX= -45

 Intra band minimization:
   WEIMIN = 0.0010     energy-eigenvalue tresh-hold
   EBREAK =  0.28E-07  absolut break condition
   DEPER  =   0.30     relativ break condition  

   TIME   =   0.40     timestep for ELM

  volume/ion in A,a.u.               =       8.95        60.40
  Fermi-wavevector in a.u.,A,eV,Ry     =   1.251663  2.365300 21.315702  1.566660
  Thomas-Fermi vector in A             =   2.385600
 
 Write flags
   LWAVE        =      T    write WAVECAR
   LDOWNSAMPLE  =      F    k-point downsampling of WAVECAR
   LCHARG       =      T    write CHGCAR
   LVTOT        =      F    write LOCPOT, total local potential
   LVHAR        =      F    write LOCPOT, Hartree potential only
   LELF         =      F    write electronic localiz. function (ELF)
   LORBIT       =     11    0 simple, 1 ext, 2 COOP (PROOUT), +10 PAW based schemes


 Dipole corrections
   LMONO  =      F    monopole corrections only (constant potential shift)
   LDIPOL =      F    correct potential (dipole corrections)
   IDIPOL =      0    1-x, 2-y, 3-z, 4-all directions 
   EPSILON=  1.0000000 bulk dielectric constant

 Exchange correlation treatment:
   GGA     =    PE    GGA type
   LEXCH   =     8    internal setting for exchange type
   LIBXC   =     F    Libxc                    
   VOSKOWN =     0    Vosko Wilk Nusair interpolation
   EXXOEP  =     0    0=HF, 1=EXX-LHF (local Hartree Fock) 2=EXX OEP
   LHFCALC =     T    Hartree Fock is set to
   LSYMGRAD=     F    symmetrize gradient (conserves proper symmetry)
   PRECFOCK=fast      Normal, Fast or Accurate (Low or Medium for compatibility)
   LRHFCALC=     F    long range Hartree Fock
   LRSCOR  =     F    long range correlation only (use DFT for short range part)
   LTHOMAS =     F    Thomas Fermi screening in HF
   LMODELHF=     F    short range full HF, long range fraction AEXX
   FOCKCORR=     1    mode to apply convergence corrections
   LFOCKACE=     T    use Adeptively-Compressed-Exchange operator
   ENCUT4O =  -1.0   cutoff for four orbital integrals eV
   LMAXFOCK=     4    L truncation for augmentation on plane wave grid
   LMAXFOCKAE=  -1    L truncation for all-electron charge restoration on plane wave grid
   NMAXFOCKAE=   1    number of basis functions for all-electron charge restoration
   LFOCKAEDFT=     F  apply the AE augmentation even for DFT
   NKREDX  =     1    reduce k-point grid by
   NKREDY  =     1    reduce k-point grid by
   NKREDZ  =     1    reduce k-point grid by
   SHIFTRED=     F    shift reduced grid of Gamma
   HFKIDENT=     F    idential grid for each k-point
   ODDONLY =     F    use only odd q-grid points
   EVENONLY=     F    use only even q-grid points
   HFALPHA =   -1.0000 decay constant for conv. correction
   MCALPHA =    0.0000 extent of test-charge in conv. correction in multipole expansion
   AEXX    =    0.3200 exact exchange contribution
   HFSCREEN=    0.2000 screening length (either q_TF or 0.3 A-1)
   HFSCREENC=   0.2000 screening length for correlation (either q_TF or 0.3 A-1)
   HFRCUT  =    0.0000 spherical cutoff for potential kernel
   ALDAX   =    0.6800 LDA exchange part
   AGGAX   =    0.6800 GGA exchange part
   ALDAC   =    1.0000 LDA correlation
   AGGAC   =    1.0000 GGA correlation
   ENCUTFOCK=  -1.0 apply spherical cutoff to Coloumb kernel
   NBANDSGWLOW=     1    first orbital included in HF term
   NBLOCK_FOCK=    64    blocking factor in FOCK_ACC

 Linear response parameters
   LEPSILON=     F    determine dielectric tensor
   LRPA    =     F    only Hartree local field effects (RPA)
   LNABLA  =     F    use nabla operator in PAW spheres
   LVEL    =     F    velocity operator in full k-point grid
   CSHIFT  =0.1000    complex shift for real part using Kramers Kronig
   OMEGAMAX=  -1.0    maximum frequency
   DEG_THRESHOLD= 0.2000000E-02 threshold for treating states as degnerate
   RTIME   =   -0.100 relaxation time in fs
  (WPLASMAI=    0.000 imaginary part of plasma frequency in eV, 0.658/RTIME)
   DFIELD  = 0.0000000 0.0000000 0.0000000 field for delta impulse in time
 
  Optional k-point grid parameters
   LKPOINTS_OPT  =     F    use optional k-point grid
   KPOINTS_OPT_MODE=     1    mode for optional k-point grid
 
 Orbital magnetization related:
   ORBITALMAG=     F  switch on orbital magnetization
   LCHIMAG   =     F  perturbation theory with respect to B field
   DQ        =  0.001000  dq finite difference perturbation B field
   LLRAUG    =     F  two centre corrections for induced B field
   LBONE     =     F  B-component reconstruction in AE one-centre
   LVGVCALC  =     T  calculate vGv susceptibility
   LVGVAPPL  =     F  apply vGv susceptibility instead of pGv for G=0

 Random number generation:
   RANDOM_GENERATOR = DEFAULT
   PCG_SEED         = not used


--------------------------------------------------------------------------------------------------------


 quasi-Newton-method for relaxation of ions
 charge density and potential will be updated during run
 spin polarized calculation
 Variant of blocked Davidson
 Davidson routine will perform the subspace rotation
 perform sub-space diagonalisation
    after iterative eigenvector-optimisation
 Kerker-like  mixing scheme
 using additional bands          308
 WARNING: no broadening specified (might cause bad convergence)
 real space projection scheme for non local part
 use partial core corrections
 calculate Harris-corrections to forces 
   (improved forces if not selfconsistent)
 use gradient corrections 
 use of overlap-Matrix (Vanderbilt PP)
 partial occupancies read from INCAR or WAVECAR (fixed during run)


--------------------------------------------------------------------------------------------------------


  energy-cutoff  :      500.00
  volume of cell :     2577.60
      direct lattice vectors                 reciprocal lattice vectors
    14.936314146  0.000000000  0.000000000     0.066950922  0.038654133 -0.000000000
    -7.468157073 12.935227490 -0.000000000     0.000000000  0.077308265 -0.000000000
     0.000000000  0.000000000 13.341276284     0.000000000  0.000000000  0.074955348

  length of vectors
    14.936314146 14.936314146 13.341276284     0.077308265  0.077308265  0.074955348


 
 k-points in units of 2pi/SCALE and weight: KPOINTS file                            
   0.00000000  0.00000000  0.00000000       1.000
 
 k-points in reciprocal lattice and weights: KPOINTS file                            
   0.00000000  0.00000000  0.00000000       1.000
 
 position of ions in fractional coordinates (direct lattice) 
   0.44444444  0.38888889  0.37500000
   0.11109540  0.05554008  0.12478078
   0.61113309  0.55558180  0.12523304
   0.44444469  0.05554008  0.12478078
   0.94444973  0.55555643  0.12505972
   0.77777778  0.05555556  0.12479035
   0.11111111  0.72222222  0.62491642
   0.44444469  0.72223794  0.62521922
   0.27775153  0.22220025  0.62476696
   0.77779325  0.72223794  0.62521922
   0.61111822  0.22221512  0.62532676
   0.94443995  0.22222037  0.62517449
   0.27777690  0.72222663  0.12505972
   0.11109690  0.22221512  0.12467324
   0.44444871  0.22220025  0.12523304
   0.61111822  0.72223643  0.12467324
   0.94444973  0.72222663  0.12505972
   0.77778042  0.22222037  0.12482551
   0.11110670  0.88888360  0.62494028
   0.44444629  0.88888981  0.62500845
   0.27775153  0.38888462  0.62476696
   0.61113309  0.38888462  0.62476696
   0.77778042  0.88889338  0.62517449
   0.94444352  0.38888705  0.62500845
   0.11109540  0.38888865  0.12478078
   0.27777690  0.88888360  0.12505972
   0.61111296  0.88889338  0.12482551
   0.44444444  0.38888889  0.12979985
   0.94444352  0.88888981  0.12499155
   0.77779325  0.38888865  0.12478078
   0.27776976  0.55556357  0.62505657
   0.11109540  0.05554008  0.62521922
   0.61113309  0.55558180  0.62476696
   0.44444469  0.05554008  0.62521922
   0.94444973  0.55555643  0.62494028
   0.11110670  0.55555643  0.12505972
   0.77777778  0.05555556  0.62520965
   0.27776976  0.05553952  0.12494343
   0.44444871  0.55558180  0.12523304
   0.77779381  0.55556357  0.12494343
   0.61111296  0.05555291  0.12482551
   0.44444871  0.55558180  0.62476696
   0.94443995  0.05555291  0.12482551
   0.27777690  0.72222663  0.62494028
   0.11109690  0.22221512  0.62532676
   0.44444871  0.22220025  0.62476696
   0.61111822  0.72223643  0.62532676
   0.94444973  0.72222663  0.62494028
   0.77778042  0.22222037  0.62517449
   0.11111111  0.72222222  0.12508358
   0.44444469  0.72223794  0.12478078
   0.27775153  0.22220025  0.12523304
   0.77779325  0.72223794  0.12478078
   0.61111822  0.22221512  0.12467324
   0.94443995  0.22222037  0.12482551
   0.11109540  0.38888865  0.62521922
   0.27777690  0.88888360  0.62494028
   0.61111296  0.88889338  0.62517449
   0.44444444  0.38888889  0.62020015
   0.94444352  0.88888981  0.62500845
   0.11110670  0.88888360  0.12505972
   0.77779325  0.38888865  0.62521922
   0.44444629  0.88888981  0.12499155
   0.27775153  0.38888462  0.12523304
   0.27776976  0.55556357  0.12494343
   0.61113309  0.38888462  0.12523304
   0.77778042  0.88889338  0.12482551
   0.94444352  0.38888705  0.12499155
   0.11110670  0.55555643  0.62494028
   0.27776976  0.05553952  0.62505657
   0.77779381  0.55556357  0.62505657
   0.61111296  0.05555291  0.62517449
   0.94443995  0.05555291  0.62517449
   0.05456615  0.11044029  0.37500000
   0.55610766  0.61221532  0.37500000
   0.38788399  0.10552529  0.37500000
   0.89081066  0.61207199  0.37500000
   0.72239538  0.11093795  0.37500000
   0.05555493  0.77777840  0.87500000
   0.38888943  0.77777828  0.87500000
   0.22222530  0.27777932  0.87500000
   0.72222281  0.77777866  0.87500000
   0.55555402  0.27777932  0.87500000
   0.88888979  0.27777957  0.87500000
   0.22185516  0.77759425  0.37500000
   0.05456615  0.27745919  0.37500000
   0.37968300  0.25936600  0.37500000
   0.55587414  0.77876718  0.37500000
   0.89045106  0.77903897  0.37500000
   0.72289304  0.27745919  0.37500000
   0.05555505  0.94444448  0.87500000
   0.38888943  0.94444448  0.87500000
   0.22222487  0.44444112  0.87500000
   0.55553919  0.44443626  0.87500000
   0.72222215  0.94444431  0.87500000
   0.88888885  0.44444390  0.87500000
   0.05429437  0.44474542  0.37500000
   0.22126134  0.94252268  0.37500000
   0.55580685  0.94457009  0.37500000
   0.37968300  0.45365033  0.37500000
   0.88876324  0.94457009  0.37500000
   0.72780805  0.44544934  0.37500000
   0.22222375  0.61110958  0.87500000
   0.05555467  0.11111052  0.87500000
   0.55555402  0.61110804  0.87500000
   0.38889221  0.11111708  0.87500000
   0.88888583  0.61110958  0.87500000
   0.05573909  0.61147817  0.37500000
   0.72222215  0.11111118  0.87500000
   0.21764129  0.10552529  0.37500000
   0.38788399  0.61569204  0.37500000
   0.72780805  0.61569204  0.37500000
   0.55587414  0.11044029  0.37500000
   0.38889221  0.61110846  0.87500000
   0.88854257  0.11093795  0.37500000
   0.22222347  0.77777840  0.87500000
   0.05555467  0.27777748  0.87500000
   0.38889707  0.27779414  0.87500000
   0.55555585  0.77777866  0.87500000
   0.88888885  0.77777828  0.87500000
   0.72222281  0.27777748  0.87500000
   0.05573909  0.77759425  0.37500000
   0.38858791  0.77903897  0.37500000
   0.22111802  0.27722567  0.37500000
   0.72289304  0.77876718  0.37500000
   0.55610766  0.27722567  0.37500000
   0.88876324  0.27752649  0.37500000
   0.05555505  0.44444390  0.87500000
   0.22222375  0.94444750  0.87500000
   0.55555376  0.94444355  0.87500000
   0.38889707  0.44443626  0.87500000
   0.88888979  0.94444355  0.87500000
   0.05429437  0.94288228  0.37500000
   0.72221625  0.44444112  0.87500000
   0.38858791  0.94288228  0.37500000
   0.21764129  0.44544934  0.37500000
   0.22126134  0.61207199  0.37500000
   0.57396733  0.45365033  0.37500000
   0.72239538  0.94479076  0.37500000
   0.89045106  0.44474542  0.37500000
   0.05555493  0.61110987  0.87500000
   0.22222487  0.11111708  0.87500000
   0.72221625  0.61110846  0.87500000
   0.55555585  0.11111052  0.87500000
   0.88888902  0.11111118  0.87500000
   0.10813936  0.05281588  0.37500000
   0.61817227  0.56133408  0.37500000
   0.44467653  0.05281588  0.37500000
   0.94528709  0.55580639  0.37500000
   0.77777778  0.05555556  0.37500000
   0.11111111  0.72222222  0.87500000
   0.44445180  0.72223666  0.87500000
   0.27775490  0.22220831  0.87500000
   0.77778485  0.72223666  0.87500000
   0.61112272  0.22221062  0.87500000
   0.94443533  0.22221653  0.87500000
   0.27752695  0.72281403  0.37500000
   0.11015662  0.22174497  0.37500000
   0.44316181  0.21516106  0.37500000
   0.61158836  0.72317672  0.37500000
   0.94528709  0.72281403  0.37500000
   0.77790932  0.22181269  0.37500000
   0.11110693  0.88888826  0.87500000
   0.44445094  0.88889214  0.87500000
   0.27775490  0.38887993  0.87500000
   0.61112503  0.38887993  0.87500000
   0.77778120  0.88889801  0.87500000
   0.94444120  0.38888239  0.87500000
   0.10813936  0.38865681  0.37500000
   0.27752695  0.88804625  0.37500000
   0.61152064  0.88942996  0.37500000
   0.94428327  0.88905006  0.37500000
   0.78051745  0.38865681  0.37500000
   0.27777497  0.55555837  0.87500000
   0.11109668  0.05554848  0.87500000
   0.61112503  0.55557843  0.87500000
   0.44445180  0.05554848  0.87500000
   0.94444507  0.55555200  0.87500000
   0.11051930  0.55580639  0.37500000
   0.77777778  0.05555556  0.87500000
   0.27636167  0.05272333  0.37500000
   0.44316181  0.56133408  0.37500000
   0.78061000  0.55697167  0.37500000
   0.61152064  0.05542402  0.37500000
   0.44445341  0.55557843  0.87500000
   0.94390337  0.05542402  0.37500000
   0.27778133  0.72222640  0.87500000
   0.11108790  0.22221062  0.87500000
   0.44445341  0.22220831  0.87500000
   0.61112272  0.72224543  0.87500000
   0.94444507  0.72222640  0.87500000
   0.77778120  0.22221653  0.87500000
   0.11111111  0.72222222  0.37500000
   0.44467653  0.72519398  0.37500000
   0.27199925  0.21516106  0.37500000
   0.78051745  0.72519398  0.37500000
   0.61158836  0.22174497  0.37500000
   0.94390337  0.22181269  0.37500000
   0.11109668  0.38888153  0.87500000
   0.27778133  0.88888826  0.87500000
   0.61111680  0.88889801  0.87500000
   0.44444444  0.38888889  0.87500000
   0.94444120  0.88889214  0.87500000
   0.11051930  0.88804625  0.37500000
   0.77778485  0.38888153  0.87500000
   0.44476679  0.88905006  0.37500000
[...]
  144        1.235   2.827   0.000   4.062
  145        1.235   2.827   0.000   4.062
  146        0.771   1.467   0.000   2.238
  147        0.764   1.461   0.000   2.225
  148        0.771   1.467   0.000   2.238
  149        0.763   1.448   0.000   2.211
  150        0.764   1.445   0.000   2.209
  151        0.760   1.431   0.000   2.191
  152        0.760   1.431   0.000   2.191
  153        0.760   1.432   0.000   2.192
  154        0.760   1.431   0.000   2.191
  155        0.760   1.432   0.000   2.192
  156        0.760   1.432   0.000   2.192
  157        0.763   1.448   0.000   2.211
  158        0.758   1.433   0.000   2.191
  159        0.764   1.461   0.000   2.225
  160        0.758   1.433   0.000   2.191
  161        0.763   1.448   0.000   2.211
  162        0.763   1.448   0.000   2.210
  163        0.760   1.432   0.000   2.192
  164        0.760   1.432   0.000   2.192
  165        0.760   1.432   0.000   2.192
  166        0.760   1.432   0.000   2.192
  167        0.760   1.432   0.000   2.192
  168        0.760   1.432   0.000   2.192
  169        0.771   1.467   0.000   2.238
  170        0.763   1.448   0.000   2.211
  171        0.763   1.448   0.000   2.210
  172        0.769   1.465   0.000   2.233
  173        0.771   1.467   0.000   2.238
  174        0.760   1.432   0.000   2.192
  175        0.760   1.431   0.000   2.191
  176        0.760   1.432   0.000   2.192
  177        0.760   1.431   0.000   2.191
  178        0.760   1.432   0.000   2.192
  179        0.763   1.448   0.000   2.211
  180        0.760   1.431   0.000   2.191
  181        0.759   1.434   0.000   2.192
  182        0.764   1.461   0.000   2.225
  183        0.759   1.434   0.000   2.192
  184        0.763   1.448   0.000   2.210
  185        0.760   1.432   0.000   2.192
  186        0.763   1.448   0.000   2.210
  187        0.760   1.432   0.000   2.192
  188        0.760   1.432   0.000   2.192
  189        0.760   1.432   0.000   2.192
  190        0.760   1.432   0.000   2.192
  191        0.760   1.432   0.000   2.192
  192        0.760   1.432   0.000   2.192
  193        0.764   1.445   0.000   2.209
  194        0.771   1.467   0.000   2.238
  195        0.764   1.461   0.000   2.225
  196        0.771   1.467   0.000   2.238
  197        0.758   1.433   0.000   2.191
  198        0.763   1.448   0.000   2.210
  199        0.760   1.431   0.000   2.191
  200        0.760   1.432   0.000   2.192
  201        0.760   1.432   0.000   2.192
  202        0.760   1.433   0.000   2.193
  203        0.760   1.432   0.000   2.192
  204        0.763   1.448   0.000   2.211
  205        0.760   1.431   0.000   2.191
  206        0.769   1.465   0.000   2.233
  207        0.764   1.461   0.000   2.225
  208        0.759   1.434   0.000   2.192
  209        0.764   1.461   0.000   2.225
  210        0.763   1.448   0.000   2.210
  211        0.769   1.465   0.000   2.233
  212        0.760   1.432   0.000   2.192
  213        0.760   1.432   0.000   2.192
  214        0.760   1.432   0.000   2.192
  215        0.760   1.432   0.000   2.192
  216        0.760   1.432   0.000   2.192
  217        0.759   1.433   0.000   2.193
  218        0.760   1.431   0.000   2.191
  219        0.759   1.433   0.000   2.192
  220        0.760   1.431   0.000   2.191
  221        0.760   1.433   0.000   2.193
  222        0.760   1.433   0.000   2.193
  223        0.760   1.433   0.000   2.193
  224        0.760   1.431   0.000   2.191
  225        0.759   1.433   0.000   2.193
  226        0.760   1.431   0.000   2.191
  227        0.760   1.431   0.000   2.191
  228        0.760   1.433   0.000   2.193
  229        0.759   1.433   0.000   2.193
  230        0.759   1.433   0.000   2.192
  231        0.759   1.433   0.000   2.193
  232        0.760   1.433   0.000   2.193
  233        0.759   1.433   0.000   2.193
  234        0.760   1.433   0.000   2.193
  235        0.760   1.433   0.000   2.193
  236        0.759   1.433   0.000   2.192
  237        0.759   1.433   0.000   2.192
  238        0.760   1.433   0.000   2.193
  239        0.760   1.433   0.000   2.193
  240        0.760   1.433   0.000   2.193
  241        0.760   1.431   0.000   2.191
  242        0.760   1.431   0.000   2.191
  243        0.759   1.433   0.000   2.192
  244        0.760   1.431   0.000   2.191
  245        0.759   1.433   0.000   2.192
  246        0.760   1.431   0.000   2.191
  247        0.759   1.433   0.000   2.193
  248        0.760   1.431   0.000   2.191
  249        0.759   1.433   0.000   2.192
  250        0.760   1.431   0.000   2.191
  251        0.760   1.433   0.000   2.193
  252        0.760   1.433   0.000   2.193
  253        0.759   1.433   0.000   2.192
  254        0.759   1.433   0.000   2.192
  255        0.759   1.433   0.000   2.192
  256        0.759   1.433   0.000   2.193
  257        0.759   1.433   0.000   2.192
  258        0.760   1.433   0.000   2.193
  259        0.760   1.433   0.000   2.193
  260        0.759   1.433   0.000   2.193
  261        0.759   1.433   0.000   2.192
  262        0.759   1.433   0.000   2.193
  263        0.760   1.433   0.000   2.193
  264        0.759   1.433   0.000   2.193
  265        0.760   1.433   0.000   2.193
  266        0.760   1.433   0.000   2.193
  267        0.760   1.431   0.000   2.191
  268        0.759   1.433   0.000   2.193
  269        0.760   1.431   0.000   2.191
  270        0.760   1.431   0.000   2.191
  271        0.760   1.433   0.000   2.193
  272        0.760   1.431   0.000   2.191
  273        0.760   1.431   0.000   2.191
  274        0.759   1.433   0.000   2.192
  275        0.760   1.431   0.000   2.191
  276        0.760   1.433   0.000   2.193
  277        0.759   1.433   0.000   2.192
  278        0.760   1.433   0.000   2.193
  279        0.759   1.433   0.000   2.192
  280        0.760   1.431   0.000   2.191
  281        0.759   1.433   0.000   2.192
  282        0.760   1.433   0.000   2.193
  283        0.760   1.433   0.000   2.193
  284        0.760   1.433   0.000   2.193
  285        0.759   1.433   0.000   2.192
  286        0.759   1.433   0.000   2.192
  287        0.759   1.433   0.000   2.193
  288        0.760   1.433   0.000   2.193
--------------------------------------------------
tot        287.291 613.450   0.000 900.741



 magnetization (x)

# of ion       s       p       d       tot
------------------------------------------
    1        0.001   0.002   0.000   0.002
    2       -0.000  -0.002   0.000  -0.002
    3       -0.000  -0.001   0.000  -0.001
    4       -0.000  -0.002   0.000  -0.002
    5       -0.000  -0.001   0.000  -0.001
    6       -0.000  -0.002   0.000  -0.002
    7       -0.000  -0.002   0.000  -0.002
    8       -0.000  -0.002   0.000  -0.002
    9       -0.000  -0.001   0.000  -0.001
   10       -0.000  -0.002   0.000  -0.002
   11       -0.000  -0.001   0.000  -0.001
   12       -0.000  -0.001   0.000  -0.001
   13       -0.000  -0.001   0.000  -0.001
   14       -0.000  -0.001   0.000  -0.001
   15       -0.000  -0.001   0.000  -0.001
   16       -0.000  -0.001   0.000  -0.001
   17       -0.000  -0.001   0.000  -0.001
   18       -0.000  -0.001   0.000  -0.001
   19       -0.000  -0.001   0.000  -0.001
   20       -0.000  -0.001   0.000  -0.001
   21       -0.000  -0.001   0.000  -0.001
   22       -0.000  -0.001   0.000  -0.001
   23       -0.000  -0.001   0.000  -0.001
   24       -0.000  -0.001   0.000  -0.001
   25       -0.000  -0.002   0.000  -0.002
   26       -0.000  -0.001   0.000  -0.001
   27       -0.000  -0.001   0.000  -0.001
   28       -0.000  -0.002   0.000  -0.002
   29       -0.000  -0.001   0.000  -0.001
   30       -0.000  -0.002   0.000  -0.002
   31       -0.000  -0.001   0.000  -0.001
   32       -0.000  -0.002   0.000  -0.002
   33       -0.000  -0.001   0.000  -0.001
   34       -0.000  -0.002   0.000  -0.002
   35       -0.000  -0.001   0.000  -0.001
   36       -0.000  -0.001   0.000  -0.001
   37       -0.000  -0.002   0.000  -0.002
   38       -0.000  -0.001   0.000  -0.001
   39       -0.000  -0.001   0.000  -0.001
   40       -0.000  -0.001   0.000  -0.001
   41       -0.000  -0.001   0.000  -0.001
   42       -0.000  -0.001   0.000  -0.001
   43       -0.000  -0.001   0.000  -0.001
   44       -0.000  -0.001   0.000  -0.001
   45       -0.000  -0.001   0.000  -0.001
   46       -0.000  -0.001   0.000  -0.001
   47       -0.000  -0.001   0.000  -0.001
   48       -0.000  -0.001   0.000  -0.001
   49       -0.000  -0.001   0.000  -0.001
   50       -0.000  -0.002   0.000  -0.002
   51       -0.000  -0.002   0.000  -0.002
   52       -0.000  -0.001   0.000  -0.001
   53       -0.000  -0.002   0.000  -0.002
   54       -0.000  -0.001   0.000  -0.001
   55       -0.000  -0.001   0.000  -0.001
   56       -0.000  -0.002   0.000  -0.002
   57       -0.000  -0.001   0.000  -0.001
   58       -0.000  -0.001   0.000  -0.001
   59       -0.000  -0.002   0.000  -0.002
   60       -0.000  -0.001   0.000  -0.001
   61       -0.000  -0.001   0.000  -0.001
   62       -0.000  -0.002   0.000  -0.002
   63       -0.000  -0.001   0.000  -0.001
   64       -0.000  -0.001   0.000  -0.001
   65       -0.000  -0.001   0.000  -0.001
   66       -0.000  -0.001   0.000  -0.001
   67       -0.000  -0.001   0.000  -0.001
   68       -0.000  -0.001   0.000  -0.001
   69       -0.000  -0.001   0.000  -0.001
   70       -0.000  -0.001   0.000  -0.001
   71       -0.000  -0.001   0.000  -0.001
   72       -0.000  -0.001   0.000  -0.001
   73       -0.000  -0.001   0.000  -0.001
   74       -0.001  -0.026   0.000  -0.028
   75       -0.001  -0.026   0.000  -0.027
   76       -0.001  -0.024   0.000  -0.026
   77       -0.001  -0.026   0.000  -0.027
   78       -0.001  -0.026   0.000  -0.028
   79       -0.000  -0.004   0.000  -0.005
   80       -0.000  -0.004   0.000  -0.005
   81       -0.000  -0.004   0.000  -0.005
   82       -0.000  -0.004   0.000  -0.004
   83       -0.000  -0.004   0.000  -0.005
   84       -0.000  -0.005   0.000  -0.005
   85       -0.001  -0.024   0.000  -0.025
   86       -0.001  -0.026   0.000  -0.028
   87       -0.001  -0.023   0.000  -0.024
   88       -0.001  -0.026   0.000  -0.028
   89       -0.001  -0.023   0.000  -0.024
   90       -0.001  -0.026   0.000  -0.028
   91       -0.000  -0.004   0.000  -0.005
   92       -0.000  -0.004   0.000  -0.005
   93       -0.000  -0.004   0.000  -0.004
   94       -0.000  -0.004   0.000  -0.004
   95       -0.000  -0.004   0.000  -0.004
   96       -0.000  -0.004   0.000  -0.005
   97       -0.001  -0.023   0.000  -0.024
   98       -0.001  -0.026   0.000  -0.027
   99       -0.001  -0.028   0.000  -0.029
  100       -0.001  -0.023   0.000  -0.024
  101       -0.001  -0.028   0.000  -0.029
  102       -0.001  -0.024   0.000  -0.026
  103       -0.000  -0.005   0.000  -0.005
  104       -0.000  -0.004   0.000  -0.004
  105       -0.000  -0.004   0.000  -0.005
  106       -0.000  -0.004   0.000  -0.004
  107       -0.000  -0.005   0.000  -0.005
  108       -0.001  -0.024   0.000  -0.025
  109       -0.000  -0.004   0.000  -0.004
  110       -0.001  -0.024   0.000  -0.026
  111       -0.001  -0.024   0.000  -0.026
  112       -0.001  -0.024   0.000  -0.026
  113       -0.001  -0.026   0.000  -0.028
  114       -0.000  -0.004   0.000  -0.004
  115       -0.001  -0.026   0.000  -0.028
  116       -0.000  -0.004   0.000  -0.005
  117       -0.000  -0.004   0.000  -0.004
  118       -0.000  -0.004   0.000  -0.004
  119       -0.000  -0.004   0.000  -0.004
  120       -0.000  -0.004   0.000  -0.005
  121       -0.000  -0.004   0.000  -0.004
  122       -0.001  -0.024   0.000  -0.025
  123       -0.001  -0.023   0.000  -0.024
  124       -0.001  -0.026   0.000  -0.027
  125       -0.001  -0.026   0.000  -0.028
  126       -0.001  -0.026   0.000  -0.027
  127       -0.001  -0.028   0.000  -0.029
  128       -0.000  -0.004   0.000  -0.005
  129       -0.000  -0.005   0.000  -0.005
  130       -0.000  -0.005   0.000  -0.005
  131       -0.000  -0.004   0.000  -0.004
  132       -0.000  -0.005   0.000  -0.005
  133       -0.001  -0.023   0.000  -0.024
  134       -0.000  -0.004   0.000  -0.004
  135       -0.001  -0.023   0.000  -0.024
  136       -0.001  -0.024   0.000  -0.026
  137       -0.001  -0.026   0.000  -0.027
  138       -0.001  -0.023   0.000  -0.024
  139       -0.001  -0.026   0.000  -0.028
  140       -0.001  -0.023   0.000  -0.024
  141       -0.000  -0.004   0.000  -0.005
  142       -0.000  -0.004   0.000  -0.004
  143       -0.000  -0.004   0.000  -0.004
  144       -0.000  -0.004   0.000  -0.004
  145       -0.000  -0.004   0.000  -0.004
  146        0.001   0.005   0.000   0.006
  147        0.001   0.013   0.000   0.015
  148        0.001   0.005   0.000   0.006
  149        0.001   0.013   0.000   0.015
  150        0.001   0.005   0.000   0.006
  151        0.000   0.001   0.000   0.001
  152        0.000   0.001   0.000   0.001
  153        0.000   0.003   0.000   0.004
  154        0.000   0.001   0.000   0.001
  155        0.000   0.003   0.000   0.004
  156        0.000   0.003   0.000   0.004
  157        0.001   0.013   0.000   0.015
  158        0.002   0.014   0.000   0.015
  159        0.001   0.013   0.000   0.015
  160        0.002   0.014   0.000   0.015
  161        0.001   0.013   0.000   0.015
  162        0.002   0.013   0.000   0.015
  163        0.000   0.003   0.000   0.004
  164        0.000   0.003   0.000   0.004
  165        0.000   0.003   0.000   0.004
  166        0.000   0.003   0.000   0.004
  167        0.000   0.003   0.000   0.004
  168        0.000   0.003   0.000   0.004
  169        0.001   0.005   0.000   0.006
  170        0.001   0.013   0.000   0.015
  171        0.002   0.013   0.000   0.015
  172        0.001   0.012   0.000   0.014
  173        0.001   0.005   0.000   0.006
  174        0.000   0.004   0.000   0.004
  175        0.000   0.001   0.000   0.001
  176        0.000   0.003   0.000   0.004
  177        0.000   0.001   0.000   0.001
  178        0.000   0.003   0.000   0.004
  179        0.001   0.013   0.000   0.015
  180        0.000   0.001   0.000   0.001
  181        0.002   0.013   0.000   0.015
  182        0.001   0.013   0.000   0.015
  183        0.002   0.013   0.000   0.015
  184        0.002   0.013   0.000   0.015
  185        0.000   0.003   0.000   0.004
  186        0.002   0.013   0.000   0.015
  187        0.000   0.003   0.000   0.004
  188        0.000   0.003   0.000   0.004
  189        0.000   0.003   0.000   0.004
  190        0.000   0.003   0.000   0.004
  191        0.000   0.003   0.000   0.004
  192        0.000   0.003   0.000   0.004
  193        0.001   0.005   0.000   0.006
  194        0.001   0.005   0.000   0.006
  195        0.001   0.013   0.000   0.015
  196        0.001   0.005   0.000   0.006
  197        0.002   0.014   0.000   0.015
  198        0.002   0.013   0.000   0.015
  199        0.000   0.001   0.000   0.001
  200        0.000   0.003   0.000   0.004
  201        0.000   0.003   0.000   0.004
  202        0.000   0.001   0.000   0.001
  203        0.000   0.003   0.000   0.004
  204        0.001   0.013   0.000   0.015
  205        0.000   0.001   0.000   0.001
  206        0.001   0.012   0.000   0.014
  207        0.001   0.013   0.000   0.015
  208        0.002   0.013   0.000   0.015
  209        0.001   0.013   0.000   0.015
  210        0.002   0.013   0.000   0.015
  211        0.001   0.012   0.000   0.014
  212        0.000   0.003   0.000   0.004
  213        0.000   0.004   0.000   0.004
  214        0.000   0.004   0.000   0.004
  215        0.000   0.003   0.000   0.004
  216        0.000   0.003   0.000   0.004
  217        0.000   0.004   0.000   0.004
  218        0.000   0.000   0.000   0.000
  219        0.000   0.004   0.000   0.005
  220        0.000   0.000   0.000   0.000
  221        0.000   0.004   0.000   0.005
  222        0.000   0.004   0.000   0.005
  223        0.000   0.004   0.000   0.005
  224        0.000   0.000   0.000   0.000
  225        0.000   0.004   0.000   0.004
  226        0.000   0.000   0.000   0.000
  227        0.000   0.000   0.000   0.000
  228        0.000   0.004   0.000   0.005
  229        0.000   0.004   0.000   0.004
  230        0.000   0.005   0.000   0.006
  231        0.000   0.004   0.000   0.004
  232        0.000   0.004   0.000   0.005
  233        0.000   0.004   0.000   0.004
  234        0.000   0.004   0.000   0.005
  235        0.000   0.004   0.000   0.005
  236        0.000   0.004   0.000   0.005
  237        0.000   0.005   0.000   0.006
  238        0.000   0.004   0.000   0.005
  239        0.000   0.004   0.000   0.005
  240        0.000   0.004   0.000   0.005
  241        0.000   0.000   0.000   0.000
  242        0.000   0.000   0.000   0.000
  243        0.000   0.005   0.000   0.006
  244        0.000   0.000   0.000   0.000
  245        0.000   0.004   0.000   0.005
  246        0.000   0.000   0.000   0.000
  247        0.000   0.004   0.000   0.004
  248        0.000   0.000   0.000   0.000
  249        0.000   0.004   0.000   0.005
  250        0.000   0.000   0.000   0.000
  251        0.000   0.004   0.000   0.005
  252        0.000   0.004   0.000   0.005
  253        0.000   0.004   0.000   0.005
  254        0.000   0.004   0.000   0.005
  255        0.000   0.004   0.000   0.005
  256        0.000   0.004   0.000   0.004
  257        0.000   0.004   0.000   0.005
  258        0.000   0.004   0.000   0.005
  259        0.000   0.004   0.000   0.005
  260        0.000   0.004   0.000   0.004
  261        0.000   0.005   0.000   0.006
  262        0.000   0.004   0.000   0.004
  263        0.000   0.004   0.000   0.005
  264        0.000   0.004   0.000   0.004
  265        0.000   0.004   0.000   0.005
  266        0.000   0.004   0.000   0.005
  267        0.000   0.000   0.000   0.000
  268        0.000   0.004   0.000   0.004
  269        0.000   0.000   0.000   0.000
  270        0.000   0.000   0.000   0.000
  271        0.000   0.004   0.000   0.005
  272        0.000   0.000   0.000   0.000
  273        0.000   0.000   0.000   0.000
  274        0.000   0.005   0.000   0.006
  275        0.000   0.000   0.000   0.000
  276        0.000   0.004   0.000   0.005
  277        0.000   0.004   0.000   0.005
  278        0.000   0.004   0.000   0.005
  279        0.000   0.004   0.000   0.005
  280        0.000   0.000   0.000   0.000
  281        0.000   0.005   0.000   0.006
  282        0.000   0.004   0.000   0.005
  283        0.000   0.004   0.000   0.005
  284        0.000   0.004   0.000   0.005
  285        0.000   0.004   0.000   0.005
  286        0.000   0.004   0.000   0.005
  287        0.000   0.004   0.000   0.004
  288        0.000   0.004   0.000   0.005
--------------------------------------------------
tot          0.018  -0.414   0.000  -0.396
 

 total amount of memory used by VASP MPI-rank0    60839. kBytes
=======================================================================

   base      :      30000. kBytes
   nonlr-proj:       2000. kBytes
   fftplans  :       2974. kBytes
   grid      :       4550. kBytes
   one-center:         36. kBytes
   HF        :         13. kBytes
   wavefun   :       1173. kBytes
   fock_wrk  :      20093. kBytes
 
  
  
 General timing and accounting informations for this job:
 ========================================================
  
                  Total CPU time used (sec):     2446.190
                            User time (sec):     2438.516
                          System time (sec):        7.673
                         Elapsed time (sec):     2468.471
  
                   Maximum memory used (kb):     1136760.
                   Average memory used (kb):          N/A
  
                          Minor page faults:        58403
                          Major page faults:            0
                 Voluntary context switches:        34284
