 vasp.6.4.2 20Jul23 (build Nov 06 2023 14:18:49) gamma-only                     
  
 executed on             LinuxIFC date 2024.10.06  13:50:49
 running  816 mpi-ranks, on   17 nodes
 distrk:  each k-point on  816 cores,    1 groups
 distr:  one band on NCORE=  24 cores,   34 groups


--------------------------------------------------------------------------------------------------------


 INCAR:
   NELECT = 1151
   NCORE = 24
   LREAL = Auto
   ISTART = 0
   ICHARG = 2
   LORBIT = 11
   ENCUT = 500
   EDIFF = 1E-4
   NELM = 60
   NELMIN = 4
   IBRION = 1
   NSW = 900
   POTIM = 0.3
   ISIF = 2
   EDIFFG = -1E-2
   ADDGRID = .TRUE.
   ISMEAR = 0
   SIGMA = 0.01
   IVDW = 11
   VDW_S8 = 0.109
   VDW_SR = 1.129
   ISPIN = 2
   GGA = PE
   LHFCALC = .TRUE.
   AEXX = 0.32
   HFSCREEN = 0.2
   ALGO = Normal
   TIME = 0.4
   PRECFOCK = Fast

 POTCAR:    PAW_PBE N 08Apr2002                   
 POTCAR:    PAW_PBE B 06Sep2000                   
 -----------------------------------------------------------------------------
|                                                                             |
|           W    W    AA    RRRRR   N    N  II  N    N   GGGG   !!!           |
|           W    W   A  A   R    R  NN   N  II  NN   N  G    G  !!!           |
|           W    W  A    A  R    R  N N  N  II  N N  N  G       !!!           |
|           W WW W  AAAAAA  RRRRR   N  N N  II  N  N N  G  GGG   !            |
|           WW  WW  A    A  R   R   N   NN  II  N   NN  G    G                |
|           W    W  A    A  R    R  N    N  II  N    N   GGGG   !!!           |
|                                                                             |
|     You use a magnetic or noncollinear calculation, but did not specify     |
|     the initial magnetic moment with the MAGMOM tag. Note that a            |
|     default of 1 will be used for all atoms. This ferromagnetic setup       |
|     may break the symmetry of the crystal, in particular it may rule        |
|     out finding an antiferromagnetic solution. Thence, we recommend         |
|     setting the initial magnetic moment manually or verifying carefully     |
|     that this magnetic setup is desired.                                    |
|                                                                             |
 -----------------------------------------------------------------------------

 POTCAR:    PAW_PBE N 08Apr2002                   
   SHA256 =  e053789ff3a61a86a1b75d8a110fcc91f86041011e7b0817c7c99e4e8a6349d7 N/POTCAR              
   COPYR  = (c) Copyright 08Apr2002 Georg Kresse                                                    
   COPYR  = This file is part of the software VASP. Any use, copying, and all other rights are regul
   COPYR  = If you do not have a valid VASP license, you may not use, copy or distribute this file. 
   VRHFIN =N: s2p3                                                                                  
   LEXCH  = PE                                                                                      
   EATOM  =   264.5486 eV,   19.4438 Ry                                                             
                                                                                                    
   TITEL  = PAW_PBE N 08Apr2002                                                                     
   LULTRA =        F    use ultrasoft PP ?                                                          
   IUNSCR =        1    unscreen: 0-lin 1-nonlin 2-no                                               
   RPACOR =    1.200    partial core radius                                                         
   POMASS =   14.001; ZVAL   =    5.000    mass and valenz                                          
   RCORE  =    1.500    outmost cutoff radius                                                       
   RWIGS  =    1.400; RWIGS  =    0.741    wigner-seitz radius (au A)                               
   ENMAX  =  400.000; ENMIN  =  300.000 eV                                                          
   ICORE  =        2    local potential                                                             
   LCOR   =        T    correct aug charges                                                         
   LPAW   =        T    paw PP                                                                      
   EAUG   =  627.112                                                                                
   DEXC   =    0.000                                                                                
   RMAX   =    1.529    core radius for proj-oper                                                   
   RAUG   =    1.300    factor for augmentation sphere                                              
   RDEP   =    1.514    radius for radial grids                                                     
   RDEPT  =    1.338    core radius for aug-charge                                                  
                                                                                                    
   Atomic configuration                                                                             
    4 entries                                                                                       
     n  l   j            E        occ.                                                              
     1  0  0.50      -384.7179   2.0000                                                             
     2  0  0.50       -18.5828   2.0000                                                             
     2  1  0.50        -7.0898   3.0000                                                             
     3  2  1.50        -6.8029   0.0000                                                             
   Description                                                                                      
     l       E           TYP  RCUT    TYP  RCUT                                                     
     0    -18.5828119     23  1.200                                                                 
     0    -13.5018863     23  1.200                                                                 
     1     -7.0897853     23  1.500                                                                 
     1      9.5240782     23  1.500                                                                 
     2     -6.8029130      7  1.500                                                                 
  local pseudopotential read in
  partial core-charges read in
  partial kinetic energy density read in
  atomic valenz-charges read in
  non local Contribution for L=           0  read in
    real space projection operators read in
  non local Contribution for L=           0  read in
    real space projection operators read in
  non local Contribution for L=           1  read in
    real space projection operators read in
  non local Contribution for L=           1  read in
    real space projection operators read in
    PAW grid and wavefunctions read in
 
   number of l-projection  operators is LMAX  =           4
   number of lm-projection operators is LMMAX =           8
 
 POTCAR:    PAW_PBE B 06Sep2000                   
   SHA256 =  a32ced30f5ae56fd4d10b4325ff17eb3e4e38ee0f4288bc219fb012fddfa6e97 B/POTCAR              
   COPYR  = (c) Copyright 06Sep2000 Georg Kresse                                                    
   COPYR  = This file is part of the software VASP. Any use, copying, and all other rights are regul
   COPYR  = If you do not have a valid VASP license, you may not use, copy or distribute this file. 
   VRHFIN =B: s2p1                                                                                  
   LEXCH  = PE                                                                                      
   EATOM  =    71.1703 eV,    5.2309 Ry                                                             
                                                                                                    
   TITEL  = PAW_PBE B 06Sep2000                                                                     
   LULTRA =        F    use ultrasoft PP ?                                                          
   IUNSCR =        1    unscreen: 0-lin 1-nonlin 2-no                                               
   RPACOR =    1.200    partial core radius                                                         
   POMASS =   10.811; ZVAL   =    3.000    mass and valenz                                          
   RCORE  =    1.700    outmost cutoff radius                                                       
   RWIGS  =    1.710; RWIGS  =    0.905    wigner-seitz radius (au A)                               
   ENMAX  =  318.614; ENMIN  =  238.960 eV                                                          
   ICORE  =        2    local potential                                                             
   LCOR   =        T    correct aug charges                                                         
   LPAW   =        T    paw PP                                                                      
   EAUG   =  535.514                                                                                
   DEXC   =    0.000                                                                                
   RMAX   =    1.732    core radius for proj-oper                                                   
   RAUG   =    1.300    factor for augmentation sphere                                              
   RDEP   =    1.757    radius for radial grids                                                     
   RDEPT  =    1.436    core radius for aug-charge                                                  
                                                                                                    
   Atomic configuration                                                                             
    4 entries                                                                                       
     n  l   j            E        occ.                                                              
     1  0  0.50      -180.5896   2.0000                                                             
     2  0  0.50        -9.4431   2.0000                                                             
     2  1  0.50        -3.6068   1.0000                                                             
     3  2  1.50        -4.0817   0.0000                                                             
   Description                                                                                      
     l       E           TYP  RCUT    TYP  RCUT                                                     
     0     -9.4430752     23  1.500                                                                 
     0      0.8675899     23  1.500                                                                 
     1     -3.6067955     23  1.700                                                                 
     1      6.1086146     23  1.700                                                                 
     2     -4.0817478      7  1.700                                                                 
  local pseudopotential read in
  partial core-charges read in
  partial kinetic energy density read in
  atomic valenz-charges read in
  non local Contribution for L=           0  read in
    real space projection operators read in
  non local Contribution for L=           0  read in
    real space projection operators read in
  non local Contribution for L=           1  read in
    real space projection operators read in
  non local Contribution for L=           1  read in
    real space projection operators read in
    PAW grid and wavefunctions read in
 
   number of l-projection  operators is LMAX  =           4
   number of lm-projection operators is LMMAX =           8
 
 Optimization of the real space projectors (new method)

 maximal supplied QI-value         = 25.13
 optimisation between [QCUT,QGAM] = [ 11.31, 22.87] = [ 35.82,146.48] Ry 
 Optimized for a Real-space Cutoff    1.27 Angstroem

   l    n(q)    QCUT    max X(q) W(low)/X(q) W(high)/X(q)  e(spline) 
   0      9    11.310    79.467    0.75E-04    0.16E-03    0.36E-06
   0      9    11.310    66.151    0.74E-04    0.16E-03    0.36E-06
   1      8    11.310    17.416    0.35E-03    0.12E-03    0.95E-06
   1      8    11.310    12.382    0.37E-03    0.13E-03    0.98E-06
 Optimization of the real space projectors (new method)

 maximal supplied QI-value         = 22.11
 optimisation between [QCUT,QGAM] = [ 11.28, 22.77] = [ 35.61,145.23] Ry 
 Optimized for a Real-space Cutoff    1.16 Angstroem

   l    n(q)    QCUT    max X(q) W(low)/X(q) W(high)/X(q)  e(spline) 
   0      8    11.276    53.033    0.48E-03    0.56E-03    0.11E-06
   0      8    11.276    34.740    0.48E-03    0.55E-03    0.11E-06
   1      7    11.276    30.949    0.26E-03    0.19E-04    0.19E-06
   1      7    11.276    19.518    0.24E-03    0.14E-04    0.18E-06
  PAW_PBE N 08Apr2002                   :
 energy of atom  1       EATOM= -264.5486
 kinetic energy error for atom=    0.0138 (will be added to EATOM!!)
  PAW_PBE B 06Sep2000                   :
 energy of atom  2       EATOM=  -71.1703
 kinetic energy error for atom=    0.0012 (will be added to EATOM!!)
 
 
 POSCAR: Species order: X N B
  positions in direct lattice
  No initial velocities read in
 exchange correlation table for  LEXCH =        8
   RHO(1)=    0.500       N(1)  =     2000
   RHO(2)=  100.500       N(2)  =     4000

 VTST: version 4.1, (05/19/21)

 CHAIN: initializing optimizer
 
 OPT: Using VASP QUASI-newton optimizer
 CHAIN: Read ICHAIN            0
 
 POSCAR: Species order: X N B
  positions in direct lattice
  No initial velocities read in
 


--------------------------------------------------------------------------------------------------------


 ion  position               nearest neighbor table
   1  0.111  0.056  0.125- 252 1.44 216 1.44 275 1.44
   2  0.611  0.556  0.125- 254 1.44 217 1.44 280 1.44
   3  0.444  0.056  0.125- 218 1.44 255 1.44 277 1.44
   4  0.944  0.556  0.125- 219 1.44 250 1.44 282 1.44
   5  0.778  0.056  0.125- 257 1.44 220 1.44 281 1.44
   6  0.111  0.722  0.625- 258 1.44 283 1.44 221 1.44
   7  0.444  0.722  0.625- 256 1.44 222 1.44 261 1.44
   8  0.278  0.222  0.625- 260 1.44 284 1.44 223 1.44
   9  0.778  0.722  0.625- 262 1.44 285 1.44 224 1.44
  10  0.611  0.222  0.625- 263 1.44 286 1.44 225 1.44
  11  0.944  0.222  0.625- 287 1.44 226 1.44 259 1.44
  12  0.278  0.722  0.125- 265 1.44 279 1.44 227 1.44
  13  0.111  0.222  0.125- 266 1.44 216 1.44 228 1.44
  14  0.444  0.222  0.125- 218 1.44 229 1.44 268 1.44
  15  0.611  0.722  0.125- 267 1.44 217 1.44 230 1.44
  16  0.944  0.722  0.125- 219 1.44 231 1.44 264 1.44
  17  0.778  0.222  0.125- 269 1.44 220 1.44 232 1.44
  18  0.111  0.889  0.625- 271 1.44 221 1.44 233 1.44
  19  0.444  0.889  0.625- 222 1.44 234 1.44 272 1.44
  20  0.278  0.389  0.625- 273 1.44 223 1.44 235 1.44
  21  0.611  0.389  0.625- 276 1.44 225 1.44 236 1.44
  22  0.778  0.889  0.625- 274 1.44 224 1.44 237 1.44
  23  0.944  0.389  0.625- 226 1.44 238 1.44 270 1.44
  24  0.111  0.389  0.125- 278 1.44 228 1.44 239 1.44
  25  0.278  0.889  0.125- 277 1.44 227 1.44 240 1.44
  26  0.611  0.889  0.125- 281 1.44 230 1.44 241 1.44
  27  0.444  0.389  0.125- 229 1.44 242 1.44 280 1.44
  28  0.944  0.889  0.125- 231 1.44 243 1.44 275 1.44
  29  0.778  0.389  0.125- 282 1.44 232 1.44 244 1.44
  30  0.278  0.556  0.625- 256 1.44 245 1.44 235 1.44
  31  0.111  0.056  0.625- 284 1.44 246 1.44 233 1.44
  32  0.611  0.556  0.625- 285 1.44 247 1.44 236 1.44
  33  0.444  0.056  0.625- 248 1.44 286 1.44 234 1.44
  34  0.944  0.556  0.625- 249 1.44 283 1.44 238 1.44
  35  0.111  0.556  0.125- 279 1.44 250 1.44 239 1.44
  36  0.778  0.056  0.625- 287 1.44 251 1.44 237 1.44
  37  0.278  0.056  0.125- 218 1.44 252 1.44 240 1.44
  38  0.444  0.556  0.125- 253 1.44 217 1.44 242 1.44
  39  0.778  0.556  0.125- 219 1.44 254 1.44 244 1.44
  40  0.611  0.056  0.125- 220 1.44 255 1.44 241 1.44
  41  0.444  0.556  0.625- 256 1.44 247 1.44 273 1.44
  42  0.944  0.056  0.125- 257 1.44 216 1.44 243 1.44
  43  0.278  0.722  0.625- 222 1.44 245 1.44 258 1.44
  44  0.111  0.222  0.625- 223 1.44 246 1.44 259 1.44
  45  0.444  0.222  0.625- 248 1.44 260 1.44 225 1.44
  46  0.611  0.722  0.625- 224 1.44 247 1.44 261 1.44
  47  0.944  0.722  0.625- 249 1.44 262 1.44 221 1.44
  48  0.778  0.222  0.625- 226 1.44 251 1.44 263 1.44
  49  0.111  0.722  0.125- 227 1.44 250 1.44 264 1.44
  50  0.444  0.722  0.125- 253 1.44 265 1.44 230 1.44
  51  0.278  0.222  0.125- 229 1.44 252 1.44 266 1.44
  52  0.778  0.722  0.125- 231 1.44 254 1.44 267 1.44
  53  0.611  0.222  0.125- 232 1.44 255 1.44 268 1.44
  54  0.944  0.222  0.125- 257 1.44 269 1.44 228 1.44
  55  0.111  0.389  0.625- 235 1.44 259 1.44 270 1.44
  56  0.278  0.889  0.625- 234 1.44 258 1.44 271 1.44
  57  0.611  0.889  0.625- 237 1.44 261 1.44 272 1.44
  58  0.444  0.389  0.625- 260 1.44 273 1.44 236 1.44
  59  0.944  0.889  0.625- 262 1.44 274 1.44 233 1.44
  60  0.111  0.889  0.125- 240 1.44 264 1.44 275 1.44
  61  0.778  0.389  0.625- 238 1.44 263 1.44 276 1.44
  62  0.444  0.889  0.125- 265 1.44 277 1.44 241 1.44
  63  0.278  0.389  0.125- 242 1.44 266 1.44 278 1.44
  64  0.278  0.556  0.125- 253 1.44 279 1.44 278 1.44
  65  0.611  0.389  0.125- 244 1.44 268 1.44 280 1.44
  66  0.778  0.889  0.125- 243 1.44 267 1.44 281 1.44
  67  0.944  0.389  0.125- 269 1.44 282 1.44 239 1.44
  68  0.111  0.556  0.625- 245 1.44 283 1.44 270 1.44
  69  0.278  0.056  0.625- 248 1.44 284 1.44 271 1.44
  70  0.778  0.556  0.625- 249 1.44 285 1.44 276 1.44
  71  0.611  0.056  0.625- 251 1.44 286 1.44 272 1.44
  72  0.944  0.056  0.625- 287 1.44 246 1.44 274 1.44
  73  0.056  0.111  0.375- 156 1.44 144 1.44 185 1.44
  74  0.556  0.611  0.375- 158 1.44 145 1.44 181 1.44
  75  0.389  0.111  0.375- 180 1.44 157 1.44 146 1.44
  76  0.889  0.611  0.375- 182 1.44 159 1.44 147 1.44
  77  0.722  0.111  0.375- 183 1.44 160 1.44 148 1.44
  78  0.056  0.778  0.875- 161 1.44 149 1.44 190 1.44
  79  0.389  0.778  0.875- 186 1.44 162 1.44 150 1.44
  80  0.222  0.278  0.875- 187 1.44 163 1.44 151 1.44
  81  0.722  0.778  0.875- 189 1.44 165 1.44 152 1.44
  82  0.556  0.278  0.875- 164 1.44 153 1.44 188 1.44
  83  0.889  0.278  0.875- 191 1.44 166 1.44 154 1.44
  84  0.222  0.778  0.375- 192 1.44 168 1.44 155 1.44
  85  0.056  0.278  0.375- 167 1.44 156 1.44 197 1.44
  86  0.389  0.278  0.375- 194 1.44 170 1.44 157 1.44
  87  0.556  0.778  0.375- 169 1.44 158 1.44 193 1.44
  88  0.889  0.778  0.375- 195 1.44 171 1.44 159 1.44
  89  0.722  0.278  0.375- 196 1.44 172 1.44 160 1.44
  90  0.056  0.944  0.875- 161 1.44 202 1.44 174 1.44
  91  0.389  0.944  0.875- 199 1.44 162 1.44 176 1.44
  92  0.222  0.444  0.875- 198 1.44 163 1.44 173 1.44
  93  0.556  0.444  0.875- 164 1.44 201 1.44 175 1.44
  94  0.722  0.944  0.875- 200 1.44 165 1.44 179 1.44
  95  0.889  0.444  0.875- 204 1.44 166 1.44 177 1.44
  96  0.056  0.444  0.375- 167 1.44 210 1.44 178 1.44
  97  0.222  0.944  0.375- 203 1.44 168 1.44 180 1.44
  98  0.556  0.944  0.375- 169 1.44 205 1.44 183 1.44
  99  0.389  0.444  0.375- 206 1.44 170 1.44 181 1.44
 100  0.889  0.944  0.375- 209 1.44 171 1.44 185 1.44
 101  0.722  0.444  0.375- 208 1.44 172 1.44 182 1.44
 102  0.222  0.611  0.875- 211 1.44 186 1.44 173 1.44
 103  0.056  0.111  0.875- 187 1.44 174 1.44 215 1.44
 104  0.556  0.611  0.875- 189 1.44 175 1.44 184 1.44
 105  0.389  0.111  0.875- 212 1.44 188 1.44 176 1.44
 106  0.889  0.611  0.875- 213 1.44 190 1.44 177 1.44
 107  0.056  0.611  0.375- 192 1.44 178 1.44 147 1.44
 108  0.722  0.111  0.875- 214 1.44 191 1.44 179 1.44
 109  0.222  0.111  0.375- 144 1.44 194 1.44 180 1.44
 110  0.389  0.611  0.375- 207 1.44 193 1.44 181 1.44
 111  0.722  0.611  0.375- 145 1.44 195 1.44 182 1.44
 112  0.556  0.111  0.375- 196 1.44 183 1.44 146 1.44
 113  0.389  0.611  0.875- 173 1.44 150 1.44 184 1.44
 114  0.889  0.111  0.375- 148 1.44 197 1.44 185 1.44
 115  0.222  0.778  0.875- 149 1.44 199 1.44 186 1.44
 116  0.056  0.278  0.875- 198 1.44 187 1.44 154 1.44
 117  0.389  0.278  0.875- 151 1.44 201 1.44 188 1.44
 118  0.556  0.778  0.875- 200 1.44 189 1.44 150 1.44
 119  0.889  0.778  0.875- 152 1.44 202 1.44 190 1.44
 120  0.722  0.278  0.875- 153 1.44 204 1.44 191 1.44
 121  0.056  0.778  0.375- 203 1.44 192 1.44 159 1.44
 122  0.389  0.778  0.375- 155 1.44 205 1.44 193 1.44
 123  0.222  0.278  0.375- 156 1.44 206 1.44 194 1.44
 124  0.722  0.778  0.375- 158 1.44 209 1.44 195 1.44
 125  0.556  0.278  0.375- 208 1.44 196 1.44 157 1.44
 126  0.889  0.278  0.375- 160 1.44 210 1.44 197 1.44
 127  0.056  0.444  0.875- 198 1.44 166 1.44 211 1.44
 128  0.222  0.944  0.875- 161 1.44 199 1.44 212 1.44
 129  0.556  0.944  0.875- 200 1.44 162 1.44 214 1.44
 130  0.389  0.444  0.875- 163 1.44 201 1.44 184 1.44
 131  0.889  0.944  0.875- 165 1.44 202 1.44 215 1.44
 132  0.056  0.944  0.375- 203 1.44 171 1.44 144 1.44
 133  0.722  0.444  0.875- 164 1.44 204 1.44 213 1.44
 134  0.389  0.944  0.375- 168 1.44 205 1.44 146 1.44
 135  0.222  0.444  0.375- 167 1.44 206 1.44 207 1.44
 136  0.222  0.611  0.375- 178 1.44 155 1.44 207 1.44
 137  0.722  0.944  0.375- 169 1.44 209 1.44 148 1.44
 138  0.889  0.444  0.375- 172 1.44 210 1.44 147 1.44
 139  0.056  0.611  0.875- 149 1.44 211 1.44 177 1.44
 140  0.222  0.111  0.875- 174 1.44 151 1.44 212 1.44
 141  0.722  0.611  0.875- 175 1.44 152 1.44 213 1.44
 142  0.556  0.111  0.875- 153 1.44 214 1.44 176 1.44
 143  0.889  0.111  0.875- 179 1.44 154 1.44 215 1.44
 144  0.111  0.056  0.375- 109 1.44  73 1.44 132 1.44
 145  0.611  0.556  0.375- 111 1.44  74 1.44 288 1.44
 146  0.444  0.056  0.375-  75 1.44 112 1.44 134 1.44
 147  0.944  0.556  0.375-  76 1.44 107 1.44 138 1.44
 148  0.778  0.056  0.375- 114 1.44  77 1.44 137 1.44
 149  0.111  0.722  0.875- 115 1.44 139 1.44  78 1.44
 150  0.444  0.722  0.875- 113 1.44  79 1.44 118 1.44
 151  0.278  0.222  0.875- 117 1.44 140 1.44  80 1.44
 152  0.778  0.722  0.875- 119 1.44 141 1.44  81 1.44
 153  0.611  0.222  0.875- 120 1.44 142 1.44  82 1.44
 154  0.944  0.222  0.875- 143 1.44  83 1.44 116 1.44
 155  0.278  0.722  0.375- 122 1.44 136 1.44  84 1.44
 156  0.111  0.222  0.375- 123 1.44  73 1.44  85 1.44
 157  0.444  0.222  0.375-  75 1.44  86 1.44 125 1.44
 158  0.611  0.722  0.375- 124 1.44  74 1.44  87 1.44
 159  0.944  0.722  0.375-  76 1.44  88 1.44 121 1.44
 160  0.778  0.222  0.375- 126 1.44  77 1.44  89 1.44
 161  0.111  0.889  0.875- 128 1.44  78 1.44  90 1.44
 162  0.444  0.889  0.875-  79 1.44  91 1.44 129 1.44
 163  0.278  0.389  0.875- 130 1.44  80 1.44  92 1.44
 164  0.611  0.389  0.875- 133 1.44  82 1.44  93 1.44
 165  0.778  0.889  0.875- 131 1.44  81 1.44  94 1.44
 166  0.944  0.389  0.875-  83 1.44  95 1.44 127 1.44
 167  0.111  0.389  0.375- 135 1.44  85 1.44  96 1.44
 168  0.278  0.889  0.375- 134 1.44  84 1.44  97 1.44
 169  0.611  0.889  0.375- 137 1.44  87 1.44  98 1.44
 170  0.444  0.389  0.375-  86 1.44  99 1.44 288 1.44
 171  0.944  0.889  0.375-  88 1.44 100 1.44 132 1.44
 172  0.778  0.389  0.375- 138 1.44  89 1.44 101 1.44
 173  0.278  0.556  0.875- 113 1.44 102 1.44  92 1.44
 174  0.111  0.056  0.875- 140 1.44 103 1.44  90 1.44
 175  0.611  0.556  0.875- 141 1.44 104 1.44  93 1.44
 176  0.444  0.056  0.875- 105 1.44 142 1.44  91 1.44
 177  0.944  0.556  0.875- 106 1.44 139 1.44  95 1.44
 178  0.111  0.556  0.375- 136 1.44 107 1.44  96 1.44
 179  0.778  0.056  0.875- 143 1.44 108 1.44  94 1.44
 180  0.278  0.056  0.375-  75 1.44 109 1.44  97 1.44
 181  0.444  0.556  0.375- 110 1.44  74 1.44  99 1.44
 182  0.778  0.556  0.375-  76 1.44 111 1.44 101 1.44
 183  0.611  0.056  0.375-  77 1.44 112 1.44  98 1.44
 184  0.444  0.556  0.875- 113 1.44 104 1.44 130 1.44
 185  0.944  0.056  0.375- 114 1.44  73 1.44 100 1.44
 186  0.278  0.722  0.875-  79 1.44 102 1.44 115 1.44
 187  0.111  0.222  0.875-  80 1.44 103 1.44 116 1.44
 188  0.444  0.222  0.875- 105 1.44 117 1.44  82 1.44
 189  0.611  0.722  0.875-  81 1.44 104 1.44 118 1.44
 190  0.944  0.722  0.875- 106 1.44 119 1.44  78 1.44
 191  0.778  0.222  0.875-  83 1.44 108 1.44 120 1.44
 192  0.111  0.722  0.375-  84 1.44 107 1.44 121 1.44
 193  0.444  0.722  0.375- 110 1.44 122 1.44  87 1.44
 194  0.278  0.222  0.375-  86 1.44 109 1.44 123 1.44
 195  0.778  0.722  0.375-  88 1.44 111 1.44 124 1.44
 196  0.611  0.222  0.375-  89 1.44 112 1.44 125 1.44
 197  0.944  0.222  0.375- 114 1.44 126 1.44  85 1.44
 198  0.111  0.389  0.875-  92 1.44 116 1.44 127 1.44
 199  0.278  0.889  0.875-  91 1.44 115 1.44 128 1.44
 200  0.611  0.889  0.875-  94 1.44 118 1.44 129 1.44
 201  0.444  0.389  0.875- 117 1.44 130 1.44  93 1.44
 202  0.944  0.889  0.875- 119 1.44 131 1.44  90 1.44
 203  0.111  0.889  0.375-  97 1.44 121 1.44 132 1.44
 204  0.778  0.389  0.875-  95 1.44 120 1.44 133 1.44
 205  0.444  0.889  0.375- 122 1.44 134 1.44  98 1.44
 206  0.278  0.389  0.375-  99 1.44 123 1.44 135 1.44
 207  0.278  0.556  0.375- 110 1.44 136 1.44 135 1.44
 208  0.611  0.389  0.375- 101 1.44 125 1.44 288 1.44
 209  0.778  0.889  0.375- 100 1.44 124 1.44 137 1.44
 210  0.944  0.389  0.375- 126 1.44 138 1.44  96 1.44
 211  0.111  0.556  0.875- 102 1.44 139 1.44 127 1.44
 212  0.278  0.056  0.875- 105 1.44 140 1.44 128 1.44
 213  0.778  0.556  0.875- 106 1.44 141 1.44 133 1.44
 214  0.611  0.056  0.875- 108 1.44 142 1.44 129 1.44
 215  0.944  0.056  0.875- 143 1.44 103 1.44 131 1.44
 216  0.056  0.111  0.125-  13 1.44   1 1.44  42 1.44
 217  0.556  0.611  0.125-  15 1.44   2 1.44  38 1.44
 218  0.389  0.111  0.125-  37 1.44  14 1.44   3 1.44
 219  0.889  0.611  0.125-  39 1.44  16 1.44   4 1.44
 220  0.722  0.111  0.125-  40 1.44  17 1.44   5 1.44
 221  0.056  0.778  0.625-  18 1.44   6 1.44  47 1.44
 222  0.389  0.778  0.625-  43 1.44  19 1.44   7 1.44
 223  0.222  0.278  0.625-  44 1.44  20 1.44   8 1.44
 224  0.722  0.778  0.625-  46 1.44  22 1.44   9 1.44
 225  0.556  0.278  0.625-  21 1.44  10 1.44  45 1.44
 226  0.889  0.278  0.625-  48 1.44  23 1.44  11 1.44
 227  0.222  0.778  0.125-  49 1.44  25 1.44  12 1.44
 228  0.056  0.278  0.125-  24 1.44  13 1.44  54 1.44
 229  0.389  0.278  0.125-  51 1.44  27 1.44  14 1.44
 230  0.556  0.778  0.125-  26 1.44  15 1.44  50 1.44
 231  0.889  0.778  0.125-  52 1.44  28 1.44  16 1.44
 232  0.722  0.278  0.125-  53 1.44  29 1.44  17 1.44
 233  0.056  0.944  0.625-  18 1.44  59 1.44  31 1.44
 234  0.389  0.944  0.625-  56 1.44  19 1.44  33 1.44
 235  0.222  0.444  0.625-  55 1.44  20 1.44  30 1.44
 236  0.556  0.444  0.625-  21 1.44  58 1.44  32 1.44
 237  0.722  0.944  0.625-  57 1.44  22 1.44  36 1.44
 238  0.889  0.444  0.625-  61 1.44  23 1.44  34 1.44
 239  0.056  0.444  0.125-  24 1.44  67 1.44  35 1.44
 240  0.222  0.944  0.125-  60 1.44  25 1.44  37 1.44
 241  0.556  0.944  0.125-  26 1.44  62 1.44  40 1.44
 242  0.389  0.444  0.125-  63 1.44  27 1.44  38 1.44
 243  0.889  0.944  0.125-  66 1.44  28 1.44  42 1.44
 244  0.722  0.444  0.125-  65 1.44  29 1.44  39 1.44
 245  0.222  0.611  0.625-  68 1.44  43 1.44  30 1.44
 246  0.056  0.111  0.625-  44 1.44  31 1.44  72 1.44
 247  0.556  0.611  0.625-  46 1.44  32 1.44  41 1.44
 248  0.389  0.111  0.625-  69 1.44  45 1.44  33 1.44
 249  0.889  0.611  0.625-  70 1.44  47 1.44  34 1.44
 250  0.056  0.611  0.125-  49 1.44  35 1.44   4 1.44
 251  0.722  0.111  0.625-  71 1.44  48 1.44  36 1.44
 252  0.222  0.111  0.125-   1 1.44  51 1.44  37 1.44
 253  0.389  0.611  0.125-  64 1.44  50 1.44  38 1.44
 254  0.722  0.611  0.125-   2 1.44  52 1.44  39 1.44
 255  0.556  0.111  0.125-  53 1.44  40 1.44   3 1.44
 256  0.389  0.611  0.625-  30 1.44   7 1.44  41 1.44
 257  0.889  0.111  0.125-   5 1.44  54 1.44  42 1.44
 258  0.222  0.778  0.625-   6 1.44  56 1.44  43 1.44
 259  0.056  0.278  0.625-  55 1.44  44 1.44  11 1.44
 260  0.389  0.278  0.625-   8 1.44  58 1.44  45 1.44
 261  0.556  0.778  0.625-  57 1.44  46 1.44   7 1.44
 262  0.889  0.778  0.625-   9 1.44  59 1.44  47 1.44
 263  0.722  0.278  0.625-  10 1.44  61 1.44  48 1.44
 264  0.056  0.778  0.125-  60 1.44  49 1.44  16 1.44
 265  0.389  0.778  0.125-  12 1.44  62 1.44  50 1.44
 266  0.222  0.278  0.125-  13 1.44  63 1.44  51 1.44
 267  0.722  0.778  0.125-  15 1.44  66 1.44  52 1.44
 268  0.556  0.278  0.125-  65 1.44  53 1.44  14 1.44
 269  0.889  0.278  0.125-  17 1.44  67 1.44  54 1.44
 270  0.056  0.444  0.625-  55 1.44  23 1.44  68 1.44
 271  0.222  0.944  0.625-  18 1.44  56 1.44  69 1.44
 272  0.556  0.944  0.625-  57 1.44  19 1.44  71 1.44
 273  0.389  0.444  0.625-  20 1.44  58 1.44  41 1.44
 274  0.889  0.944  0.625-  22 1.44  59 1.44  72 1.44
 275  0.056  0.944  0.125-  60 1.44  28 1.44   1 1.44
 276  0.722  0.444  0.625-  21 1.44  61 1.44  70 1.44
 277  0.389  0.944  0.125-  25 1.44  62 1.44   3 1.44
 278  0.222  0.444  0.125-  24 1.44  63 1.44  64 1.44
 279  0.222  0.611  0.125-  35 1.44  12 1.44  64 1.44
 280  0.556  0.444  0.125-  65 1.44  27 1.44   2 1.44
 281  0.722  0.944  0.125-  26 1.44  66 1.44   5 1.44
 282  0.889  0.444  0.125-  29 1.44  67 1.44   4 1.44
 283  0.056  0.611  0.625-   6 1.44  68 1.44  34 1.44
 284  0.222  0.111  0.625-  31 1.44   8 1.44  69 1.44
 285  0.722  0.611  0.625-  32 1.44   9 1.44  70 1.44
 286  0.556  0.111  0.625-  10 1.44  71 1.44  33 1.44
 287  0.889  0.111  0.625-  36 1.44  11 1.44  72 1.44
 288  0.556  0.444  0.375- 208 1.44 170 1.44 145 1.44
 
  LATTYP: Found a hexagonal cell.
 ALAT       =    14.9363141462
 C/A-ratio  =     0.8932107448
  
  Lattice vectors:
  
 A1 = (  14.9363141462,   0.0000000000,   0.0000000000)
 A2 = (  -7.4681570731,  12.9352274895,  -0.0000000000)
 A3 = (   0.0000000000,   0.0000000000,  13.3412762838)


Analysis of symmetry for initial positions (statically):
=====================================================================
 Subroutine PRICEL returns:
 Original cell was already a primitive cell.
 

 Routine SETGRP: Setting up the symmetry group for a 
 hexagonal supercell.


 Subroutine GETGRP returns: Found 12 space group operations
 (whereof  2 operations were pure point group operations)
 out of a pool of 24 trial point group operations.


The static configuration has the point symmetry C_1h.
 The point group associated with its full space group is D_3h.


Analysis of symmetry for dynamics (positions and initial velocities):
=====================================================================
 Subroutine PRICEL returns:
 Original cell was already a primitive cell.
 

 Routine SETGRP: Setting up the symmetry group for a 
 hexagonal supercell.


 Subroutine GETGRP returns: Found 12 space group operations
 (whereof  2 operations were pure point group operations)
 out of a pool of 24 trial point group operations.


The dynamic configuration has the point symmetry C_1h.
 The point group associated with its full space group is D_3h.


Analysis of structural, dynamic, and magnetic symmetry:
=====================================================================
 Subroutine PRICEL returns:
 Original cell was already a primitive cell.
 

 Routine SETGRP: Setting up the symmetry group for a 
 hexagonal supercell.


 Subroutine GETGRP returns: Found 12 space group operations
 (whereof  2 operations were pure point group operations)
 out of a pool of 24 trial point group operations.


The overall configuration has the point symmetry C_1h.
 The point group associated with its full space group is D_3h.


 Subroutine INISYM returns: Found 12 space group operations
 (whereof  2 operations are pure point group operations),
 and found     1 'primitive' translations


----------------------------------------------------------------------------------------

                                     Primitive cell                                     

  volume of cell :    2577.5962

  direct lattice vectors                    reciprocal lattice vectors
    14.936314146  0.000000000  0.000000000     0.066950922  0.038654133 -0.000000000
    -7.468157073 12.935227490 -0.000000000     0.000000000  0.077308265 -0.000000000
     0.000000000  0.000000000 13.341276284     0.000000000  0.000000000  0.074955348

  length of vectors
    14.936314146 14.936314146 13.341276284     0.077308265  0.077308265  0.074955348

  position of ions in fractional coordinates (direct lattice)
     0.111111111  0.055555556  0.125000000
     0.611111111  0.555555556  0.125000000
     0.444444444  0.055555556  0.125000000
     0.944444444  0.555555556  0.125000000
     0.777777778  0.055555556  0.125000000
     0.111111111  0.722222222  0.625000000
     0.444444444  0.722222222  0.625000000
     0.277777778  0.222222222  0.625000000
     0.777777778  0.722222222  0.625000000
     0.611111111  0.222222222  0.625000000
     0.944444444  0.222222222  0.625000000
     0.277777778  0.722222222  0.125000000
     0.111111111  0.222222222  0.125000000
     0.444444444  0.222222222  0.125000000
     0.611111111  0.722222222  0.125000000
     0.944444444  0.722222222  0.125000000
     0.777777778  0.222222222  0.125000000
     0.111111111  0.888888889  0.625000000
     0.444444444  0.888888889  0.625000000
     0.277777778  0.388888889  0.625000000
     0.611111111  0.388888889  0.625000000
     0.777777778  0.888888889  0.625000000
     0.944444444  0.388888889  0.625000000
     0.111111111  0.388888889  0.125000000
     0.277777778  0.888888889  0.125000000
     0.611111111  0.888888889  0.125000000
     0.444444444  0.388888889  0.125000000
     0.944444444  0.888888889  0.125000000
     0.777777778  0.388888889  0.125000000
     0.277777778  0.555555556  0.625000000
     0.111111111  0.055555556  0.625000000
     0.611111111  0.555555556  0.625000000
     0.444444444  0.055555556  0.625000000
     0.944444444  0.555555556  0.625000000
     0.111111111  0.555555556  0.125000000
     0.777777778  0.055555556  0.625000000
     0.277777778  0.055555556  0.125000000
     0.444444444  0.555555556  0.125000000
     0.777777778  0.555555556  0.125000000
     0.611111111  0.055555556  0.125000000
     0.444444444  0.555555556  0.625000000
     0.944444444  0.055555556  0.125000000
     0.277777778  0.722222222  0.625000000
     0.111111111  0.222222222  0.625000000
     0.444444444  0.222222222  0.625000000
     0.611111111  0.722222222  0.625000000
     0.944444444  0.722222222  0.625000000
     0.777777778  0.222222222  0.625000000
     0.111111111  0.722222222  0.125000000
     0.444444444  0.722222222  0.125000000
     0.277777778  0.222222222  0.125000000
     0.777777778  0.722222222  0.125000000
     0.611111111  0.222222222  0.125000000
     0.944444444  0.222222222  0.125000000
     0.111111111  0.388888889  0.625000000
     0.277777778  0.888888889  0.625000000
     0.611111111  0.888888889  0.625000000
     0.444444444  0.388888889  0.625000000
     0.944444444  0.888888889  0.625000000
     0.111111111  0.888888889  0.125000000
     0.777777778  0.388888889  0.625000000
     0.444444444  0.888888889  0.125000000
     0.277777778  0.388888889  0.125000000
     0.277777778  0.555555556  0.125000000
     0.611111111  0.388888889  0.125000000
     0.777777778  0.888888889  0.125000000
     0.944444444  0.388888889  0.125000000
     0.111111111  0.555555556  0.625000000
     0.277777778  0.055555556  0.625000000
     0.777777778  0.555555556  0.625000000
     0.611111111  0.055555556  0.625000000
     0.944444444  0.055555556  0.625000000
     0.055555556  0.111111111  0.375000000
     0.555555556  0.611111111  0.375000000
     0.388888889  0.111111111  0.375000000
     0.888888889  0.611111111  0.375000000
     0.722222222  0.111111111  0.375000000
     0.055555556  0.777777778  0.875000000
     0.388888889  0.777777778  0.875000000
     0.222222222  0.277777778  0.875000000
     0.722222222  0.777777778  0.875000000
     0.555555556  0.277777778  0.875000000
     0.888888889  0.277777778  0.875000000
     0.222222222  0.777777778  0.375000000
     0.055555556  0.277777778  0.375000000
     0.388888889  0.277777778  0.375000000
     0.555555556  0.777777778  0.375000000
     0.888888889  0.777777778  0.375000000
     0.722222222  0.277777778  0.375000000
     0.055555556  0.944444444  0.875000000
     0.388888889  0.944444444  0.875000000
     0.222222222  0.444444444  0.875000000
     0.555555556  0.444444444  0.875000000
     0.722222222  0.944444444  0.875000000
     0.888888889  0.444444444  0.875000000
     0.055555556  0.444444444  0.375000000
     0.222222222  0.944444444  0.375000000
     0.555555556  0.944444444  0.375000000
     0.388888889  0.444444444  0.375000000
     0.888888889  0.944444444  0.375000000
     0.722222222  0.444444444  0.375000000
     0.222222222  0.611111111  0.875000000
     0.055555556  0.111111111  0.875000000
     0.555555556  0.611111111  0.875000000
     0.388888889  0.111111111  0.875000000
     0.888888889  0.611111111  0.875000000
     0.055555556  0.611111111  0.375000000
     0.722222222  0.111111111  0.875000000
     0.222222222  0.111111111  0.375000000
     0.388888889  0.611111111  0.375000000
     0.722222222  0.611111111  0.375000000
     0.555555556  0.111111111  0.375000000
     0.388888889  0.611111111  0.875000000
     0.888888889  0.111111111  0.375000000
     0.222222222  0.777777778  0.875000000
     0.055555556  0.277777778  0.875000000
     0.388888889  0.277777778  0.875000000
     0.555555556  0.777777778  0.875000000
     0.888888889  0.777777778  0.875000000
     0.722222222  0.277777778  0.875000000
     0.055555556  0.777777778  0.375000000
     0.388888889  0.777777778  0.375000000
     0.222222222  0.277777778  0.375000000
     0.722222222  0.777777778  0.375000000
     0.555555556  0.277777778  0.375000000
     0.888888889  0.277777778  0.375000000
     0.055555556  0.444444444  0.875000000
     0.222222222  0.944444444  0.875000000
     0.555555556  0.944444444  0.875000000
     0.388888889  0.444444444  0.875000000
     0.888888889  0.944444444  0.875000000
     0.055555556  0.944444444  0.375000000
     0.722222222  0.444444444  0.875000000
     0.388888889  0.944444444  0.375000000
     0.222222222  0.444444444  0.375000000
     0.222222222  0.611111111  0.375000000
     0.722222222  0.944444444  0.375000000
     0.888888889  0.444444444  0.375000000
     0.055555556  0.611111111  0.875000000
     0.222222222  0.111111111  0.875000000
     0.722222222  0.611111111  0.875000000
     0.555555556  0.111111111  0.875000000
     0.888888889  0.111111111  0.875000000
     0.111111111  0.055555556  0.375000000
     0.611111111  0.555555556  0.375000000
     0.444444444  0.055555556  0.375000000
     0.944444444  0.555555556  0.375000000
     0.777777778  0.055555556  0.375000000
     0.111111111  0.722222222  0.875000000
     0.444444444  0.722222222  0.875000000
     0.277777778  0.222222222  0.875000000
     0.777777778  0.722222222  0.875000000
     0.611111111  0.222222222  0.875000000
     0.944444444  0.222222222  0.875000000
     0.277777778  0.722222222  0.375000000
     0.111111111  0.222222222  0.375000000
     0.444444444  0.222222222  0.375000000
     0.611111111  0.722222222  0.375000000
     0.944444444  0.722222222  0.375000000
     0.777777778  0.222222222  0.375000000
     0.111111111  0.888888889  0.875000000
     0.444444444  0.888888889  0.875000000
     0.277777778  0.388888889  0.875000000
     0.611111111  0.388888889  0.875000000
     0.777777778  0.888888889  0.875000000
     0.944444444  0.388888889  0.875000000
     0.111111111  0.388888889  0.375000000
     0.277777778  0.888888889  0.375000000
     0.611111111  0.888888889  0.375000000
     0.444444444  0.388888889  0.375000000
     0.944444444  0.888888889  0.375000000
     0.777777778  0.388888889  0.375000000
     0.277777778  0.555555556  0.875000000
     0.111111111  0.055555556  0.875000000
     0.611111111  0.555555556  0.875000000
     0.444444444  0.055555556  0.875000000
     0.944444444  0.555555556  0.875000000
     0.111111111  0.555555556  0.375000000
     0.777777778  0.055555556  0.875000000
     0.277777778  0.055555556  0.375000000
     0.444444444  0.555555556  0.375000000
     0.777777778  0.555555556  0.375000000
     0.611111111  0.055555556  0.375000000
     0.444444444  0.555555556  0.875000000
     0.944444444  0.055555556  0.375000000
     0.277777778  0.722222222  0.875000000
     0.111111111  0.222222222  0.875000000
     0.444444444  0.222222222  0.875000000
     0.611111111  0.722222222  0.875000000
     0.944444444  0.722222222  0.875000000
     0.777777778  0.222222222  0.875000000
     0.111111111  0.722222222  0.375000000
     0.444444444  0.722222222  0.375000000
     0.277777778  0.222222222  0.375000000
     0.777777778  0.722222222  0.375000000
     0.611111111  0.222222222  0.375000000
     0.944444444  0.222222222  0.375000000
     0.111111111  0.388888889  0.875000000
     0.277777778  0.888888889  0.875000000
     0.611111111  0.888888889  0.875000000
     0.444444444  0.388888889  0.875000000
     0.944444444  0.888888889  0.875000000
     0.111111111  0.888888889  0.375000000
     0.777777778  0.388888889  0.875000000
     0.444444444  0.888888889  0.375000000
     0.277777778  0.388888889  0.375000000
     0.277777778  0.555555556  0.375000000
     0.611111111  0.388888889  0.375000000
     0.777777778  0.888888889  0.375000000
     0.944444444  0.388888889  0.375000000
     0.111111111  0.555555556  0.875000000
     0.277777778  0.055555556  0.875000000
     0.777777778  0.555555556  0.875000000
     0.611111111  0.055555556  0.875000000
     0.944444444  0.055555556  0.875000000
     0.055555556  0.111111111  0.125000000
     0.555555556  0.611111111  0.125000000
     0.388888889  0.111111111  0.125000000
     0.888888889  0.611111111  0.125000000
     0.722222222  0.111111111  0.125000000
     0.055555556  0.777777778  0.625000000
     0.388888889  0.777777778  0.625000000
     0.222222222  0.277777778  0.625000000
     0.722222222  0.777777778  0.625000000
     0.555555556  0.277777778  0.625000000
     0.888888889  0.277777778  0.625000000
     0.222222222  0.777777778  0.125000000
     0.055555556  0.277777778  0.125000000
     0.388888889  0.277777778  0.125000000
     0.555555556  0.777777778  0.125000000
     0.888888889  0.777777778  0.125000000
     0.722222222  0.277777778  0.125000000
     0.055555556  0.944444444  0.625000000
     0.388888889  0.944444444  0.625000000
     0.222222222  0.444444444  0.625000000
     0.555555556  0.444444444  0.625000000
     0.722222222  0.944444444  0.625000000
     0.888888889  0.444444444  0.625000000
     0.055555556  0.444444444  0.125000000
     0.222222222  0.944444444  0.125000000
     0.555555556  0.944444444  0.125000000
     0.388888889  0.444444444  0.125000000
     0.888888889  0.944444444  0.125000000
     0.722222222  0.444444444  0.125000000
     0.222222222  0.611111111  0.625000000
     0.055555556  0.111111111  0.625000000
     0.555555556  0.611111111  0.625000000
     0.388888889  0.111111111  0.625000000
     0.888888889  0.611111111  0.625000000
     0.055555556  0.611111111  0.125000000
     0.722222222  0.111111111  0.625000000
     0.222222222  0.111111111  0.125000000
     0.388888889  0.611111111  0.125000000
     0.722222222  0.611111111  0.125000000
     0.555555556  0.111111111  0.125000000
     0.388888889  0.611111111  0.625000000
     0.888888889  0.111111111  0.125000000
     0.222222222  0.777777778  0.625000000
     0.055555556  0.277777778  0.625000000
     0.388888889  0.277777778  0.625000000
     0.555555556  0.777777778  0.625000000
     0.888888889  0.777777778  0.625000000
     0.722222222  0.277777778  0.625000000
     0.055555556  0.777777778  0.125000000
     0.388888889  0.777777778  0.125000000
     0.222222222  0.277777778  0.125000000
     0.722222222  0.777777778  0.125000000
     0.555555556  0.277777778  0.125000000
     0.888888889  0.277777778  0.125000000
     0.055555556  0.444444444  0.625000000
     0.222222222  0.944444444  0.625000000
     0.555555556  0.944444444  0.625000000
     0.388888889  0.444444444  0.625000000
     0.888888889  0.944444444  0.625000000
     0.055555556  0.944444444  0.125000000
     0.722222222  0.444444444  0.625000000
     0.388888889  0.944444444  0.125000000
     0.222222222  0.444444444  0.125000000
     0.222222222  0.611111111  0.125000000
     0.555555556  0.444444444  0.125000000
     0.722222222  0.944444444  0.125000000
     0.888888889  0.444444444  0.125000000
     0.055555556  0.611111111  0.625000000
     0.222222222  0.111111111  0.625000000
     0.722222222  0.611111111  0.625000000
     0.555555556  0.111111111  0.625000000
     0.888888889  0.111111111  0.625000000
     0.555555556  0.444444444  0.375000000

  ion indices of the primitive-cell ions
   primitive index   ion index
                 1           1
                 2           2
                 3           3
                 4           4
                 5           5
                 6           6
                 7           7
                 8           8
                 9           9
                10          10
                11          11
                12          12
                13          13
                14          14
                15          15
                16          16
                17          17
                18          18
                19          19
                20          20
                21          21
                22          22
                23          23
                24          24
                25          25
                26          26
                27          27
                28          28
                29          29
                30          30
                31          31
                32          32
                33          33
                34          34
                35          35
                36          36
                37          37
                38          38
                39          39
                40          40
                41          41
                42          42
                43          43
                44          44
                45          45
                46          46
                47          47
                48          48
                49          49
                50          50
                51          51
                52          52
                53          53
                54          54
                55          55
                56          56
                57          57
                58          58
                59          59
                60          60
                61          61
                62          62
                63          63
                64          64
                65          65
                66          66
                67          67
                68          68
                69          69
                70          70
                71          71
                72          72
                73          73
                74          74
                75          75
                76          76
                77          77
                78          78
                79          79
                80          80
                81          81
                82          82
                83          83
                84          84
                85          85
                86          86
                87          87
                88          88
                89          89
                90          90
                91          91
                92          92
                93          93
                94          94
                95          95
                96          96
                97          97
                98          98
                99          99
               100         100
               101         101
               102         102
               103         103
               104         104
               105         105
               106         106
               107         107
               108         108
               109         109
               110         110
               111         111
               112         112
               113         113
               114         114
               115         115
               116         116
               117         117
               118         118
               119         119
               120         120
               121         121
               122         122
               123         123
               124         124
               125         125
               126         126
               127         127
               128         128
               129         129
               130         130
               131         131
               132         132
               133         133
               134         134
               135         135
               136         136
               137         137
               138         138
               139         139
               140         140
               141         141
               142         142
               143         143
               144         144
               145         145
               146         146
               147         147
               148         148
               149         149
               150         150
               151         151
               152         152
               153         153
               154         154
               155         155
               156         156
               157         157
               158         158
               159         159
               160         160
               161         161
               162         162
               163         163
               164         164
               165         165
               166         166
               167         167
               168         168
               169         169
               170         170
               171         171
               172         172
               173         173
               174         174
               175         175
               176         176
               177         177
               178         178
               179         179
               180         180
               181         181
               182         182
               183         183
               184         184
               185         185
               186         186
               187         187
               188         188
               189         189
               190         190
               191         191
               192         192
               193         193
               194         194
               195         195
               196         196
               197         197
               198         198
               199         199
               200         200
               201         201
               202         202
               203         203
               204         204
               205         205
               206         206
               207         207
               208         208
               209         209
               210         210
               211         211
               212         212
               213         213
               214         214
               215         215
               216         216
               217         217
               218         218
               219         219
               220         220
               221         221
               222         222
               223         223
               224         224
               225         225
               226         226
               227         227
               228         228
               229         229
               230         230
               231         231
               232         232
               233         233
               234         234
               235         235
               236         236
               237         237
               238         238
               239         239
               240         240
               241         241
               242         242
               243         243
               244         244
               245         245
               246         246
               247         247
               248         248
               249         249
               250         250
               251         251
               252         252
               253         253
               254         254
               255         255
               256         256
               257         257
               258         258
               259         259
               260         260
               261         261
               262         262
               263         263
               264         264
               265         265
               266         266
               267         267
               268         268
               269         269
               270         270
               271         271
               272         272
               273         273
               274         274
               275         275
               276         276
               277         277
               278         278
               279         279
               280         280
               281         281
               282         282
               283         283
               284         284
               285         285
               286         286
               287         287
               288         288

----------------------------------------------------------------------------------------

 
 
 KPOINTS: KPOINTS file                            

Automatic generation of k-mesh.
 Grid dimensions read from file:
 generate k-points for:    1    1    1

 Generating k-lattice:

  Cartesian coordinates                     Fractional coordinates (reciprocal lattice)
     0.066950922  0.038654133 -0.000000000     1.000000000  0.000000000  0.000000000
     0.000000000  0.077308265 -0.000000000     0.000000000  1.000000000  0.000000000
     0.000000000  0.000000000  0.074955348     0.000000000  0.000000000  1.000000000

  Length of vectors
     0.077308265  0.077308265  0.074955348

  Shift w.r.t. Gamma in fractional coordinates (k-lattice)
     0.000000000  0.000000000  0.000000000

 
 Subroutine IBZKPT returns following result:
 ===========================================
 
 Found      1 irreducible k-points:
 
 Following reciprocal coordinates:
            Coordinates               Weight
  0.000000  0.000000  0.000000      1.000000
 
 Following cartesian coordinates:
            Coordinates               Weight
  0.000000  0.000000  0.000000      1.000000
 
 
 Subroutine IBZKPT_HF returns following result:
 ==============================================
 
 Found      1 k-points in 1st BZ
 the following      1 k-points will be used (e.g. in the exchange kernel)
 Following reciprocal coordinates:   # in IRBZ
  0.000000  0.000000  0.000000    1.00000000   1 t-inv F


--------------------------------------------------------------------------------------------------------




 Dimension of arrays:
   k-points           NKPTS =      1   k-points in BZ     NKDIM =      1   number of bands    NBANDS=    884
   number of dos      NEDOS =    301   number of ions     NIONS =    288
   non local maximal  LDIM  =      4   non local SUM 2l+1 LMDIM =      8
   total plane-waves  NPLWV = 564480
   max r-space proj   IRMAX =   1937   max aug-charges    IRDMAX=  27517
   dimension x,y,z NGX =    84 NGY =   84 NGZ =   80
   dimension x,y,z NGXF=   168 NGYF=  168 NGZF=  160
   support grid    NGXF=   336 NGYF=  336 NGZF=  320
   ions per type =             143 145
   NGX,Y,Z   is equivalent  to a cutoff of   9.35,  9.35,  9.97 a.u.
   NGXF,Y,Z  is equivalent  to a cutoff of  18.70, 18.70, 19.94 a.u.

 SYSTEM =  unknown system                          
 POSCAR =  Species order: X N B                    

 Startparameter for this run:
   NWRITE =      2    write-flag & timer
   PREC   = normal    normal or accurate (medium, high low for compatibility)
   ISTART =      0    job   : 0-new  1-cont  2-samecut
   ICHARG =      2    charge: 1-file 2-atom 10-const
   ISPIN  =      2    spin polarized calculation?
   LNONCOLLINEAR =      F non collinear calculations
   LSORBIT =      F    spin-orbit coupling
   INIWAV =      1    electr: 0-lowe 1-rand  2-diag
   LASPH  =      F    aspherical Exc in radial PAW
 Electronic Relaxation 1
   ENCUT  =  500.0 eV  36.75 Ry    6.06 a.u.  27.23 27.23 24.32*2*pi/ulx,y,z
   ENINI  =  500.0     initial cutoff
   ENAUG  =  627.1 eV  augmentation charge cutoff
   NELM   =     60;   NELMIN=  4; NELMDL= -5     # of ELM steps 
   EDIFF  = 0.1E-03   stopping-criterion for ELM
   LREAL  =      T    real-space projection
   NLSPLINE    = F    spline interpolate recip. space projectors
   LCOMPAT=      F    compatible to vasp.4.4
   GGA_COMPAT  = T    GGA compatible to vasp.4.4-vasp.4.6
   LMAXPAW     = -100 max onsite density
   LMAXMIX     =    2 max onsite mixed and CHGCAR
   VOSKOWN=      0    Vosko Wilk Nusair interpolation
   ROPT   =   -0.00050  -0.00050
 Ionic relaxation
   EDIFFG = -.1E-01   stopping-criterion for IOM
   NSW    =    900    number of steps for IOM
   NBLOCK =      1;   KBLOCK =    900    inner block; outer block 
   IBRION =      1    ionic relax: 0-MD 1-quasi-New 2-CG
   NFREE  =      0    steps in history (QN), initial steepest desc. (CG)
   ISIF   =      2    stress and relaxation
   IWAVPR =     11    prediction:  0-non 1-charg 2-wave 3-comb
   ISYM   =      3    0-nonsym 1-usesym 2-fastsym
   LCORR  =      T    Harris-Foulkes like correction to forces

   POTIM  = 0.3000    time-step for ionic-motion
   TEIN   =    0.0    initial temperature
   TEBEG  =    0.0;   TEEND  =   0.0 temperature during run
   SMASS  =  -3.00    Nose mass-parameter (am)
   estimated Nose-frequenzy (Omega)   =  0.10E-29 period in steps = 0.21E+47 mass=  -0.510E-26a.u.
   SCALEE = 1.0000    scale energy and forces
   NPACO  =    256;   APACO  = 10.0  distance and # of slots for P.C.
   PSTRESS=    0.0 pullay stress

  Mass of Ions in am
   POMASS =  14.00 10.81
  Ionic Valenz
   ZVAL   =   5.00  3.00
  Atomic Wigner-Seitz radii
   RWIGS  =  -1.00 -1.00
  virtual crystal weights 
   VCA    =   1.00  1.00
   NELECT =    1151.0000    total number of electrons
   NUPDOWN=      -1.0000    fix difference up-down

 DOS related values:
   EMIN   =  10.00;   EMAX   =-10.00  energy-range for DOS
   EFERMI =   0.00;   METHOD = LEGACY      
   ISMEAR =     0;   SIGMA  =   0.01  broadening in eV -4-tet -1-fermi 0-gaus

 Electronic relaxation 2 (details)
   IALGO  =     38    algorithm
   LDIAG  =      T    sub-space diagonalisation (order eigenvalues)
   LSUBROT=      F    optimize rotation matrix (better conditioning)
   TURBO    =      0    0=normal 1=particle mesh
   IRESTART =      0    0=no restart 2=restart with 2 vectors
   NREBOOT  =      0    no. of reboots
   NMIN     =      0    reboot dimension
   EREF     =   0.00    reference energy to select bands
   IMIX   =      1    mixing-type and parameters
     AMIX     =   0.40;   BMIX     =  1.00
     AMIX_MAG =   1.60;   BMIX_MAG =  1.00
     AMIN     =   0.10
     WC   =   100.;   INIMIX=   1;  MIXPRE=   1;  MAXMIX= -45

 Intra band minimization:
   WEIMIN = 0.0010     energy-eigenvalue tresh-hold
   EBREAK =  0.28E-07  absolut break condition
   DEPER  =   0.30     relativ break condition  

   TIME   =   0.40     timestep for ELM

  volume/ion in A,a.u.               =       8.95        60.40
  Fermi-wavevector in a.u.,A,eV,Ry     =   1.251301  2.364615 21.303364  1.565753
  Thomas-Fermi vector in A             =   2.385254
 
 Write flags
   LWAVE        =      T    write WAVECAR
   LDOWNSAMPLE  =      F    k-point downsampling of WAVECAR
   LCHARG       =      T    write CHGCAR
   LVTOT        =      F    write LOCPOT, total local potential
   LVHAR        =      F    write LOCPOT, Hartree potential only
   LELF         =      F    write electronic localiz. function (ELF)
   LORBIT       =     11    0 simple, 1 ext, 2 COOP (PROOUT), +10 PAW based schemes


 Dipole corrections
   LMONO  =      F    monopole corrections only (constant potential shift)
   LDIPOL =      F    correct potential (dipole corrections)
   IDIPOL =      0    1-x, 2-y, 3-z, 4-all directions 
   EPSILON=  1.0000000 bulk dielectric constant

 Exchange correlation treatment:
   GGA     =    PE    GGA type
   LEXCH   =     8    internal setting for exchange type
   LIBXC   =     F    Libxc                    
   VOSKOWN =     0    Vosko Wilk Nusair interpolation
   EXXOEP  =     0    0=HF, 1=EXX-LHF (local Hartree Fock) 2=EXX OEP
   LHFCALC =     T    Hartree Fock is set to
   LSYMGRAD=     F    symmetrize gradient (conserves proper symmetry)
   PRECFOCK=fast      Normal, Fast or Accurate (Low or Medium for compatibility)
   LRHFCALC=     F    long range Hartree Fock
   LRSCOR  =     F    long range correlation only (use DFT for short range part)
   LTHOMAS =     F    Thomas Fermi screening in HF
   LMODELHF=     F    short range full HF, long range fraction AEXX
   FOCKCORR=     1    mode to apply convergence corrections
   LFOCKACE=     T    use Adeptively-Compressed-Exchange operator
   ENCUT4O =  -1.0   cutoff for four orbital integrals eV
   LMAXFOCK=     4    L truncation for augmentation on plane wave grid
   LMAXFOCKAE=  -1    L truncation for all-electron charge restoration on plane wave grid
   NMAXFOCKAE=   1    number of basis functions for all-electron charge restoration
   LFOCKAEDFT=     F  apply the AE augmentation even for DFT
   NKREDX  =     1    reduce k-point grid by
   NKREDY  =     1    reduce k-point grid by
   NKREDZ  =     1    reduce k-point grid by
   SHIFTRED=     F    shift reduced grid of Gamma
   HFKIDENT=     F    idential grid for each k-point
   ODDONLY =     F    use only odd q-grid points
   EVENONLY=     F    use only even q-grid points
   HFALPHA =   -1.0000 decay constant for conv. correction
   MCALPHA =    0.0000 extent of test-charge in conv. correction in multipole expansion
   AEXX    =    0.3200 exact exchange contribution
   HFSCREEN=    0.2000 screening length (either q_TF or 0.3 A-1)
   HFSCREENC=   0.2000 screening length for correlation (either q_TF or 0.3 A-1)
   HFRCUT  =    0.0000 spherical cutoff for potential kernel
   ALDAX   =    0.6800 LDA exchange part
   AGGAX   =    0.6800 GGA exchange part
   ALDAC   =    1.0000 LDA correlation
   AGGAC   =    1.0000 GGA correlation
   ENCUTFOCK=  -1.0 apply spherical cutoff to Coloumb kernel
   NBANDSGWLOW=     1    first orbital included in HF term
   NBLOCK_FOCK=    64    blocking factor in FOCK_ACC

 Linear response parameters
   LEPSILON=     F    determine dielectric tensor
   LRPA    =     F    only Hartree local field effects (RPA)
   LNABLA  =     F    use nabla operator in PAW spheres
   LVEL    =     F    velocity operator in full k-point grid
   CSHIFT  =0.1000    complex shift for real part using Kramers Kronig
   OMEGAMAX=  -1.0    maximum frequency
   DEG_THRESHOLD= 0.2000000E-02 threshold for treating states as degnerate
   RTIME   =   -0.100 relaxation time in fs
  (WPLASMAI=    0.000 imaginary part of plasma frequency in eV, 0.658/RTIME)
   DFIELD  = 0.0000000 0.0000000 0.0000000 field for delta impulse in time
 
  Optional k-point grid parameters
   LKPOINTS_OPT  =     F    use optional k-point grid
   KPOINTS_OPT_MODE=     1    mode for optional k-point grid
 
 Orbital magnetization related:
   ORBITALMAG=     F  switch on orbital magnetization
   LCHIMAG   =     F  perturbation theory with respect to B field
   DQ        =  0.001000  dq finite difference perturbation B field
   LLRAUG    =     F  two centre corrections for induced B field
   LBONE     =     F  B-component reconstruction in AE one-centre
   LVGVCALC  =     T  calculate vGv susceptibility
   LVGVAPPL  =     F  apply vGv susceptibility instead of pGv for G=0

 Random number generation:
   RANDOM_GENERATOR = DEFAULT
   PCG_SEED         = not used


--------------------------------------------------------------------------------------------------------


 quasi-Newton-method for relaxation of ions
 charge density and potential will be updated during run
 spin polarized calculation
 Variant of blocked Davidson
 Davidson routine will perform the subspace rotation
 perform sub-space diagonalisation
    after iterative eigenvector-optimisation
 Kerker-like  mixing scheme
 using additional bands          308
 real space projection scheme for non local part
 use partial core corrections
 calculate Harris-corrections to forces 
   (improved forces if not selfconsistent)
 use gradient corrections 
 use of overlap-Matrix (Vanderbilt PP)
 Gauss-broadening in eV      SIGMA  =   0.01


--------------------------------------------------------------------------------------------------------


  energy-cutoff  :      500.00
  volume of cell :     2577.60
      direct lattice vectors                 reciprocal lattice vectors
    14.936314146  0.000000000  0.000000000     0.066950922  0.038654133 -0.000000000
    -7.468157073 12.935227490 -0.000000000     0.000000000  0.077308265 -0.000000000
     0.000000000  0.000000000 13.341276284     0.000000000  0.000000000  0.074955348

  length of vectors
    14.936314146 14.936314146 13.341276284     0.077308265  0.077308265  0.074955348


 
 k-points in units of 2pi/SCALE and weight: KPOINTS file                            
   0.00000000  0.00000000  0.00000000       1.000
 
 k-points in reciprocal lattice and weights: KPOINTS file                            
   0.00000000  0.00000000  0.00000000       1.000
 
 position of ions in fractional coordinates (direct lattice) 
   0.11111111  0.05555556  0.12500000
   0.61111111  0.55555556  0.12500000
   0.44444444  0.05555556  0.12500000
   0.94444444  0.55555556  0.12500000
   0.77777778  0.05555556  0.12500000
   0.11111111  0.72222222  0.62500000
   0.44444444  0.72222222  0.62500000
   0.27777778  0.22222222  0.62500000
   0.77777778  0.72222222  0.62500000
   0.61111111  0.22222222  0.62500000
   0.94444444  0.22222222  0.62500000
   0.27777778  0.72222222  0.12500000
   0.11111111  0.22222222  0.12500000
   0.44444444  0.22222222  0.12500000
   0.61111111  0.72222222  0.12500000
   0.94444444  0.72222222  0.12500000
   0.77777778  0.22222222  0.12500000
   0.11111111  0.88888889  0.62500000
   0.44444444  0.88888889  0.62500000
   0.27777778  0.38888889  0.62500000
   0.61111111  0.38888889  0.62500000
   0.77777778  0.88888889  0.62500000
   0.94444444  0.38888889  0.62500000
   0.11111111  0.38888889  0.12500000
   0.27777778  0.88888889  0.12500000
   0.61111111  0.88888889  0.12500000
   0.44444444  0.38888889  0.12500000
   0.94444444  0.88888889  0.12500000
   0.77777778  0.38888889  0.12500000
   0.27777778  0.55555556  0.62500000
   0.11111111  0.05555556  0.62500000
   0.61111111  0.55555556  0.62500000
   0.44444444  0.05555556  0.62500000
   0.94444444  0.55555556  0.62500000
   0.11111111  0.55555556  0.12500000
   0.77777778  0.05555556  0.62500000
   0.27777778  0.05555556  0.12500000
   0.44444444  0.55555556  0.12500000
   0.77777778  0.55555556  0.12500000
   0.61111111  0.05555556  0.12500000
   0.44444444  0.55555556  0.62500000
   0.94444444  0.05555556  0.12500000
   0.27777778  0.72222222  0.62500000
   0.11111111  0.22222222  0.62500000
   0.44444444  0.22222222  0.62500000
   0.61111111  0.72222222  0.62500000
   0.94444444  0.72222222  0.62500000
   0.77777778  0.22222222  0.62500000
   0.11111111  0.72222222  0.12500000
   0.44444444  0.72222222  0.12500000
   0.27777778  0.22222222  0.12500000
   0.77777778  0.72222222  0.12500000
   0.61111111  0.22222222  0.12500000
   0.94444444  0.22222222  0.12500000
   0.11111111  0.38888889  0.62500000
   0.27777778  0.88888889  0.62500000
   0.61111111  0.88888889  0.62500000
   0.44444444  0.38888889  0.62500000
   0.94444444  0.88888889  0.62500000
   0.11111111  0.88888889  0.12500000
   0.77777778  0.38888889  0.62500000
   0.44444444  0.88888889  0.12500000
   0.27777778  0.38888889  0.12500000
   0.27777778  0.55555556  0.12500000
   0.61111111  0.38888889  0.12500000
   0.77777778  0.88888889  0.12500000
   0.94444444  0.38888889  0.12500000
   0.11111111  0.55555556  0.62500000
   0.27777778  0.05555556  0.62500000
   0.77777778  0.55555556  0.62500000
   0.61111111  0.05555556  0.62500000
   0.94444444  0.05555556  0.62500000
   0.05555556  0.11111111  0.37500000
   0.55555556  0.61111111  0.37500000
   0.38888889  0.11111111  0.37500000
   0.88888889  0.61111111  0.37500000
   0.72222222  0.11111111  0.37500000
   0.05555556  0.77777778  0.87500000
   0.38888889  0.77777778  0.87500000
   0.22222222  0.27777778  0.87500000
   0.72222222  0.77777778  0.87500000
   0.55555556  0.27777778  0.87500000
   0.88888889  0.27777778  0.87500000
   0.22222222  0.77777778  0.37500000
   0.05555556  0.27777778  0.37500000
   0.38888889  0.27777778  0.37500000
   0.55555556  0.77777778  0.37500000
   0.88888889  0.77777778  0.37500000
   0.72222222  0.27777778  0.37500000
   0.05555556  0.94444444  0.87500000
   0.38888889  0.94444444  0.87500000
   0.22222222  0.44444444  0.87500000
   0.55555556  0.44444444  0.87500000
   0.72222222  0.94444444  0.87500000
   0.88888889  0.44444444  0.87500000
   0.05555556  0.44444444  0.37500000
   0.22222222  0.94444444  0.37500000
   0.55555556  0.94444444  0.37500000
   0.38888889  0.44444444  0.37500000
   0.88888889  0.94444444  0.37500000
   0.72222222  0.44444444  0.37500000
   0.22222222  0.61111111  0.87500000
   0.05555556  0.11111111  0.87500000
   0.55555556  0.61111111  0.87500000
   0.38888889  0.11111111  0.87500000
   0.88888889  0.61111111  0.87500000
   0.05555556  0.61111111  0.37500000
   0.72222222  0.11111111  0.87500000
   0.22222222  0.11111111  0.37500000
   0.38888889  0.61111111  0.37500000
   0.72222222  0.61111111  0.37500000
   0.55555556  0.11111111  0.37500000
   0.38888889  0.61111111  0.87500000
   0.88888889  0.11111111  0.37500000
   0.22222222  0.77777778  0.87500000
   0.05555556  0.27777778  0.87500000
   0.38888889  0.27777778  0.87500000
   0.55555556  0.77777778  0.87500000
   0.88888889  0.77777778  0.87500000
   0.72222222  0.27777778  0.87500000
   0.05555556  0.77777778  0.37500000
   0.38888889  0.77777778  0.37500000
   0.22222222  0.27777778  0.37500000
   0.72222222  0.77777778  0.37500000
   0.55555556  0.27777778  0.37500000
   0.88888889  0.27777778  0.37500000
   0.05555556  0.44444444  0.87500000
   0.22222222  0.94444444  0.87500000
   0.55555556  0.94444444  0.87500000
   0.38888889  0.44444444  0.87500000
   0.88888889  0.94444444  0.87500000
   0.05555556  0.94444444  0.37500000
   0.72222222  0.44444444  0.87500000
   0.38888889  0.94444444  0.37500000
   0.22222222  0.44444444  0.37500000
   0.22222222  0.61111111  0.37500000
   0.72222222  0.94444444  0.37500000
   0.88888889  0.44444444  0.37500000
   0.05555556  0.61111111  0.87500000
   0.22222222  0.11111111  0.87500000
   0.72222222  0.61111111  0.87500000
   0.55555556  0.11111111  0.87500000
   0.88888889  0.11111111  0.87500000
   0.11111111  0.05555556  0.37500000
   0.61111111  0.55555556  0.37500000
   0.44444444  0.05555556  0.37500000
   0.94444444  0.55555556  0.37500000
   0.77777778  0.05555556  0.37500000
   0.11111111  0.72222222  0.87500000
   0.44444444  0.72222222  0.87500000
   0.27777778  0.22222222  0.87500000
   0.77777778  0.72222222  0.87500000
   0.61111111  0.22222222  0.87500000
   0.94444444  0.22222222  0.87500000
   0.27777778  0.72222222  0.37500000
   0.11111111  0.22222222  0.37500000
   0.44444444  0.22222222  0.37500000
   0.61111111  0.72222222  0.37500000
   0.94444444  0.72222222  0.37500000
   0.77777778  0.22222222  0.37500000
   0.11111111  0.88888889  0.87500000
   0.44444444  0.88888889  0.87500000
   0.27777778  0.38888889  0.87500000
   0.61111111  0.38888889  0.87500000
   0.77777778  0.88888889  0.87500000
   0.94444444  0.38888889  0.87500000
   0.11111111  0.38888889  0.37500000
   0.27777778  0.88888889  0.37500000
   0.61111111  0.88888889  0.37500000
   0.44444444  0.38888889  0.37500000
   0.94444444  0.88888889  0.37500000
   0.77777778  0.38888889  0.37500000
   0.27777778  0.55555556  0.87500000
   0.11111111  0.05555556  0.87500000
   0.61111111  0.55555556  0.87500000
   0.44444444  0.05555556  0.87500000
   0.94444444  0.55555556  0.87500000
   0.11111111  0.55555556  0.37500000
   0.77777778  0.05555556  0.87500000
   0.27777778  0.05555556  0.37500000
   0.44444444  0.55555556  0.37500000
   0.77777778  0.55555556  0.37500000
   0.61111111  0.05555556  0.37500000
   0.44444444  0.55555556  0.87500000
   0.94444444  0.05555556  0.37500000
   0.27777778  0.72222222  0.87500000
   0.11111111  0.22222222  0.87500000
   0.44444444  0.22222222  0.87500000
   0.61111111  0.72222222  0.87500000
   0.94444444  0.72222222  0.87500000
   0.77777778  0.22222222  0.87500000
   0.11111111  0.72222222  0.37500000
   0.44444444  0.72222222  0.37500000
   0.27777778  0.22222222  0.37500000
   0.77777778  0.72222222  0.37500000
   0.61111111  0.22222222  0.37500000
   0.94444444  0.22222222  0.37500000
   0.11111111  0.38888889  0.87500000
   0.27777778  0.88888889  0.87500000
   0.61111111  0.88888889  0.87500000
   0.44444444  0.38888889  0.87500000
   0.94444444  0.88888889  0.87500000
   0.11111111  0.88888889  0.37500000
   0.77777778  0.38888889  0.87500000
   0.44444444  0.88888889  0.37500000
   0.27777778  0.38888889  0.37500000
   0.27777778  0.55555556  0.37500000
   0.61111111  0.38888889  0.37500000
   0.77777778  0.88888889  0.37500000
   0.94444444  0.38888889  0.37500000
   0.11111111  0.55555556  0.87500000
   0.27777778  0.05555556  0.87500000
   0.77777778  0.55555556  0.87500000
   0.61111111  0.05555556  0.87500000
   0.94444444  0.05555556  0.87500000
   0.05555556  0.11111111  0.12500000
   0.55555556  0.61111111  0.12500000
   0.38888889  0.11111111  0.12500000
   0.88888889  0.61111111  0.12500000
   0.72222222  0.11111111  0.12500000
   0.05555556  0.77777778  0.62500000
   0.38888889  0.77777778  0.62500000
   0.22222222  0.27777778  0.62500000
   0.72222222  0.77777778  0.62500000
   0.55555556  0.27777778  0.62500000
   0.88888889  0.27777778  0.62500000
   0.22222222  0.77777778  0.12500000
   0.05555556  0.27777778  0.12500000
   0.38888889  0.27777778  0.12500000
   0.55555556  0.77777778  0.12500000
   0.88888889  0.77777778  0.12500000
   0.72222222  0.27777778  0.12500000
   0.05555556  0.94444444  0.62500000
   0.38888889  0.94444444  0.62500000
   0.22222222  0.44444444  0.62500000
   0.55555556  0.44444444  0.62500000
   0.72222222  0.94444444  0.62500000
   0.88888889  0.44444444  0.62500000
   0.05555556  0.44444444  0.12500000
   0.22222222  0.94444444  0.12500000
   0.55555556  0.94444444  0.12500000
   0.38888889  0.44444444  0.12500000
   0.88888889  0.94444444  0.12500000
   0.72222222  0.44444444  0.12500000
   0.22222222  0.61111111  0.62500000
   0.05555556  0.11111111  0.62500000
   0.55555556  0.61111111  0.62500000
   0.38888889  0.11111111  0.62500000
   0.88888889  0.61111111  0.62500000
   0.05555556  0.61111111  0.12500000
   0.72222222  0.11111111  0.62500000
   0.22222222  0.11111111  0.12500000
   0.38888889  0.61111111  0.12500000
   0.72222222  0.61111111  0.12500000
   0.55555556  0.11111111  0.12500000
   0.38888889  0.61111111  0.62500000
   0.88888889  0.11111111  0.12500000
   0.22222222  0.77777778  0.62500000
   0.05555556  0.27777778  0.62500000
   0.38888889  0.27777778  0.62500000
   0.55555556  0.77777778  0.62500000
   0.88888889  0.77777778  0.62500000
   0.72222222  0.27777778  0.62500000
   0.05555556  0.77777778  0.12500000
   0.38888889  0.77777778  0.12500000
   0.22222222  0.27777778  0.12500000
   0.72222222  0.77777778  0.12500000
   0.55555556  0.27777778  0.12500000
   0.88888889  0.27777778  0.12500000
   0.05555556  0.44444444  0.62500000
   0.22222222  0.94444444  0.62500000
   0.55555556  0.94444444  0.62500000
   0.38888889  0.44444444  0.62500000
   0.88888889  0.94444444  0.62500000
   0.05555556  0.94444444  0.12500000
   0.72222222  0.44444444  0.62500000
   0.38888889  0.94444444  0.12500000
   0.22222222  0.44444444  0.12500000
   0.22222222  0.61111111  0.12500000
   0.55555556  0.44444444  0.12500000
   0.72222222  0.94444444  0.12500000
   0.88888889  0.44444444  0.12500000
   0.05555556  0.61111111  0.62500000
   0.22222222  0.11111111  0.62500000
   0.72222222  0.61111111  0.62500000
   0.55555556  0.11111111  0.62500000
   0.88888889  0.11111111  0.62500000
   0.55555556  0.44444444  0.37500000
 
 position of ions in cartesian coordinates  (Angst):
   1.24469285  0.71862375  1.66765954
   4.97877138  7.18623749  1.66765954
   6.22346423  0.71862375  1.66765954
   9.95754276  7.18623749  1.66765954
  11.20223561  0.71862375  1.66765954
  -3.73407854  9.34210874  8.33829768
   1.24469285  9.34210874  8.33829768
   2.48938569  2.87449500  8.33829768
   6.22346423  9.34210874  8.33829768
   7.46815707  2.87449500  8.33829768
  12.44692846  2.87449500  8.33829768
  -1.24469285  9.34210874  1.66765954
   0.00000000  2.87449500  1.66765954
   4.97877138  2.87449500  1.66765954
   3.73407854  9.34210874  1.66765954
   8.71284992  9.34210874  1.66765954
   9.95754276  2.87449500  1.66765954
  -4.97877138 11.49797999  8.33829768
   0.00000000 11.49797999  8.33829768
   1.24469285  5.03036625  8.33829768
   6.22346423  5.03036625  8.33829768
   4.97877138 11.49797999  8.33829768
  11.20223561  5.03036625  8.33829768
  -1.24469285  5.03036625  1.66765954
  -2.48938569 11.49797999  1.66765954
   2.48938569 11.49797999  1.66765954
   3.73407854  5.03036625  1.66765954
   7.46815707 11.49797999  1.66765954
   8.71284992  5.03036625  1.66765954
   0.00000000  7.18623749  8.33829768
   1.24469285  0.71862375  8.33829768
   4.97877138  7.18623749  8.33829768
   6.22346423  0.71862375  8.33829768
   9.95754276  7.18623749  8.33829768
  -2.48938569  7.18623749  1.66765954
  11.20223561  0.71862375  8.33829768
   3.73407854  0.71862375  1.66765954
   2.48938569  7.18623749  1.66765954
   7.46815707  7.18623749  1.66765954
   8.71284992  0.71862375  1.66765954
   2.48938569  7.18623749  8.33829768
  13.69162130  0.71862375  1.66765954
  -1.24469285  9.34210874  8.33829768
   0.00000000  2.87449500  8.33829768
   4.97877138  2.87449500  8.33829768
   3.73407854  9.34210874  8.33829768
   8.71284992  9.34210874  8.33829768
   9.95754276  2.87449500  8.33829768
  -3.73407854  9.34210874  1.66765954
   1.24469285  9.34210874  1.66765954
   2.48938569  2.87449500  1.66765954
   6.22346423  9.34210874  1.66765954
   7.46815707  2.87449500  1.66765954
  12.44692846  2.87449500  1.66765954
  -1.24469285  5.03036625  8.33829768
  -2.48938569 11.49797999  8.33829768
   2.48938569 11.49797999  8.33829768
   3.73407854  5.03036625  8.33829768
   7.46815707 11.49797999  8.33829768
  -4.97877138 11.49797999  1.66765954
   8.71284992  5.03036625  8.33829768
   0.00000000 11.49797999  1.66765954
   1.24469285  5.03036625  1.66765954
   0.00000000  7.18623749  1.66765954
   6.22346423  5.03036625  1.66765954
   4.97877138 11.49797999  1.66765954
  11.20223561  5.03036625  1.66765954
  -2.48938569  7.18623749  8.33829768
   3.73407854  0.71862375  8.33829768
   7.46815707  7.18623749  8.33829768
   8.71284992  0.71862375  8.33829768
  13.69162130  0.71862375  8.33829768
   0.00000000  1.43724750  5.00297861
   3.73407854  7.90486124  5.00297861
   4.97877138  1.43724750  5.00297861
   8.71284992  7.90486124  5.00297861
   9.95754276  1.43724750  5.00297861
[...]
  144        0.768   1.456   0.000   2.224
  145        0.789   1.433   0.000   2.222
  146        0.761   1.435   0.000   2.196
  147        0.761   1.435   0.000   2.196
  148        0.766   1.450   0.000   2.215
  149        0.760   1.432   0.000   2.192
  150        0.760   1.432   0.000   2.192
  151        0.760   1.431   0.000   2.191
  152        0.760   1.431   0.000   2.191
  153        0.760   1.431   0.000   2.191
  154        0.760   1.432   0.000   2.192
  155        0.763   1.442   0.000   2.205
  156        0.766   1.451   0.000   2.216
  157        0.752   1.395   0.000   2.147
  158        0.771   1.464   0.000   2.234
  159        0.761   1.435   0.000   2.196
  160        0.766   1.451   0.000   2.216
  161        0.760   1.432   0.000   2.192
  162        0.760   1.432   0.000   2.192
  163        0.760   1.431   0.000   2.191
  164        0.760   1.430   0.000   2.190
  165        0.760   1.432   0.000   2.191
  166        0.760   1.432   0.000   2.192
  167        0.768   1.456   0.000   2.224
  168        0.763   1.442   0.000   2.205
  169        0.768   1.456   0.000   2.224
  170        0.789   1.433   0.000   2.222
  171        0.768   1.456   0.000   2.224
  172        0.771   1.464   0.000   2.234
  173        0.760   1.432   0.000   2.192
  174        0.760   1.432   0.000   2.192
  175        0.760   1.430   0.000   2.190
  176        0.760   1.432   0.000   2.192
  177        0.760   1.432   0.000   2.192
  178        0.762   1.440   0.000   2.202
  179        0.760   1.432   0.000   2.192
  180        0.761   1.435   0.000   2.196
  181        0.752   1.395   0.000   2.147
  182        0.752   1.395   0.000   2.147
  183        0.768   1.456   0.000   2.224
  184        0.760   1.431   0.000   2.191
  185        0.766   1.450   0.000   2.215
  186        0.760   1.432   0.000   2.192
  187        0.760   1.432   0.000   2.191
  188        0.760   1.431   0.000   2.191
  189        0.760   1.431   0.000   2.191
  190        0.760   1.432   0.000   2.192
  191        0.760   1.432   0.000   2.191
  192        0.763   1.442   0.000   2.205
  193        0.761   1.435   0.000   2.196
  194        0.771   1.464   0.000   2.234
  195        0.771   1.464   0.000   2.234
  196        0.771   1.464   0.000   2.234
  197        0.766   1.450   0.000   2.215
  198        0.760   1.432   0.000   2.192
  199        0.760   1.432   0.000   2.192
  200        0.760   1.432   0.000   2.192
  201        0.760   1.430   0.000   2.190
  202        0.760   1.432   0.000   2.192
  203        0.762   1.440   0.000   2.202
  204        0.760   1.431   0.000   2.191
  205        0.762   1.440   0.000   2.202
  206        0.771   1.464   0.000   2.234
  207        0.761   1.435   0.000   2.196
  208        0.789   1.433   0.000   2.222
  209        0.766   1.451   0.000   2.216
  210        0.768   1.456   0.000   2.224
  211        0.760   1.432   0.000   2.192
  212        0.760   1.432   0.000   2.192
  213        0.760   1.431   0.000   2.191
  214        0.760   1.432   0.000   2.192
  215        0.760   1.432   0.000   2.192
  216        0.760   1.432   0.000   2.193
  217        0.760   1.430   0.000   2.190
  218        0.760   1.431   0.000   2.191
  219        0.760   1.431   0.000   2.191
  220        0.760   1.432   0.000   2.193
  221        0.760   1.432   0.000   2.192
  222        0.760   1.432   0.000   2.192
  223        0.760   1.432   0.000   2.192
  224        0.760   1.432   0.000   2.192
  225        0.760   1.430   0.000   2.190
  226        0.760   1.432   0.000   2.193
  227        0.760   1.432   0.000   2.192
  228        0.760   1.432   0.000   2.193
  229        0.760   1.430   0.000   2.190
  230        0.760   1.432   0.000   2.192
  231        0.760   1.432   0.000   2.192
  232        0.760   1.432   0.000   2.192
  233        0.760   1.432   0.000   2.192
  234        0.760   1.432   0.000   2.192
  235        0.760   1.432   0.000   2.192
  236        0.757   1.422   0.000   2.179
  237        0.760   1.432   0.000   2.193
  238        0.760   1.432   0.000   2.192
  239        0.760   1.432   0.000   2.192
  240        0.760   1.432   0.000   2.192
  241        0.760   1.432   0.000   2.192
  242        0.760   1.430   0.000   2.190
  243        0.760   1.432   0.000   2.193
  244        0.760   1.430   0.000   2.190
  245        0.760   1.432   0.000   2.192
  246        0.760   1.432   0.000   2.193
  247        0.760   1.430   0.000   2.190
  248        0.760   1.431   0.000   2.191
  249        0.760   1.431   0.000   2.191
  250        0.760   1.432   0.000   2.192
  251        0.760   1.432   0.000   2.193
  252        0.760   1.432   0.000   2.192
  253        0.760   1.431   0.000   2.191
  254        0.760   1.430   0.000   2.190
  255        0.760   1.432   0.000   2.192
  256        0.760   1.431   0.000   2.191
  257        0.760   1.433   0.000   2.193
  258        0.760   1.432   0.000   2.192
  259        0.760   1.432   0.000   2.193
  260        0.760   1.430   0.000   2.190
  261        0.760   1.432   0.000   2.192
  262        0.760   1.432   0.000   2.192
  263        0.760   1.432   0.000   2.192
  264        0.760   1.432   0.000   2.192
  265        0.760   1.432   0.000   2.192
  266        0.760   1.432   0.000   2.192
  267        0.760   1.432   0.000   2.192
  268        0.760   1.430   0.000   2.190
  269        0.760   1.432   0.000   2.193
  270        0.760   1.432   0.000   2.192
  271        0.760   1.432   0.000   2.192
  272        0.760   1.432   0.000   2.192
  273        0.760   1.430   0.000   2.190
  274        0.760   1.432   0.000   2.193
  275        0.760   1.432   0.000   2.192
  276        0.760   1.430   0.000   2.190
  277        0.760   1.432   0.000   2.192
  278        0.760   1.432   0.000   2.192
  279        0.760   1.432   0.000   2.192
  280        0.757   1.422   0.000   2.179
  281        0.760   1.432   0.000   2.193
  282        0.760   1.432   0.000   2.192
  283        0.760   1.432   0.000   2.192
  284        0.760   1.432   0.000   2.192
  285        0.760   1.430   0.000   2.190
  286        0.760   1.432   0.000   2.192
  287        0.760   1.433   0.000   2.193
  288        0.813   1.575   0.000   2.387
--------------------------------------------------
tot        287.109 612.778   0.000 899.887



 magnetization (x)

# of ion       s       p       d       tot
------------------------------------------
    1       -0.000  -0.000   0.000  -0.000
    2        0.001   0.004   0.000   0.005
    3        0.000   0.000   0.000   0.000
    4        0.000   0.000   0.000   0.000
    5       -0.000  -0.000   0.000  -0.000
    6       -0.000  -0.000   0.000  -0.000
    7        0.000   0.000   0.000   0.000
    8       -0.000   0.000   0.000   0.000
    9       -0.000   0.000   0.000   0.000
   10       -0.000   0.000   0.000   0.000
   11       -0.000  -0.000   0.000  -0.000
   12       -0.000  -0.000   0.000  -0.000
   13        0.000   0.000   0.000   0.000
   14        0.000   0.001   0.000   0.001
   15       -0.000   0.000   0.000   0.000
   16        0.000   0.000   0.000   0.000
   17        0.000   0.000   0.000   0.000
   18        0.000   0.000   0.000   0.000
   19        0.000   0.000   0.000   0.000
   20       -0.000   0.000   0.000   0.000
   21        0.001   0.004   0.000   0.005
   22        0.000   0.000   0.000   0.000
   23       -0.000  -0.000   0.000  -0.000
   24       -0.000  -0.000   0.000  -0.000
   25       -0.000  -0.000   0.000  -0.000
   26       -0.000  -0.000   0.000  -0.000
   27        0.001   0.004   0.000   0.005
   28       -0.000  -0.000   0.000  -0.000
   29       -0.000   0.000   0.000   0.000
   30        0.000   0.000   0.000   0.000
   31       -0.000  -0.000   0.000  -0.000
   32        0.001   0.004   0.000   0.005
   33        0.000   0.000   0.000   0.000
   34        0.000   0.000   0.000   0.000
   35        0.000   0.000   0.000   0.000
   36       -0.000  -0.000   0.000  -0.000
   37        0.000   0.000   0.000   0.000
   38        0.000   0.001   0.000   0.001
   39        0.000   0.001   0.000   0.001
   40       -0.000  -0.000   0.000  -0.000
   41        0.000   0.001   0.000   0.001
   42       -0.000  -0.000   0.000  -0.000
   43       -0.000  -0.000   0.000  -0.000
   44        0.000   0.000   0.000   0.000
   45        0.000   0.001   0.000   0.001
   46       -0.000   0.000   0.000   0.000
   47        0.000   0.000   0.000   0.000
   48        0.000   0.000   0.000   0.000
   49       -0.000  -0.000   0.000  -0.000
   50        0.000   0.000   0.000   0.000
   51       -0.000   0.000   0.000   0.000
   52       -0.000   0.000   0.000   0.000
   53       -0.000   0.000   0.000   0.000
   54       -0.000  -0.000   0.000  -0.000
   55       -0.000  -0.000   0.000  -0.000
   56       -0.000  -0.000   0.000  -0.000
   57       -0.000  -0.000   0.000  -0.000
   58        0.001   0.004   0.000   0.005
   59       -0.000  -0.000   0.000  -0.000
   60        0.000   0.000   0.000   0.000
   61       -0.000   0.000   0.000   0.000
   62        0.000   0.000   0.000   0.000
   63       -0.000   0.000   0.000   0.000
   64        0.000   0.000   0.000   0.000
   65        0.001   0.004   0.000   0.005
   66        0.000   0.000   0.000   0.000
   67       -0.000  -0.000   0.000  -0.000
   68        0.000   0.000   0.000   0.000
   69        0.000   0.000   0.000   0.000
   70        0.000   0.001   0.000   0.001
   71       -0.000  -0.000   0.000  -0.000
   72       -0.000  -0.000   0.000  -0.000
   73       -0.000   0.000   0.000   0.000
   74       -0.000   0.005   0.000   0.005
   75       -0.000   0.000   0.000  -0.000
   76       -0.000   0.000   0.000  -0.000
   77       -0.000   0.000   0.000   0.000
   78       -0.000   0.000   0.000   0.000
   79       -0.000   0.000   0.000   0.000
   80        0.000   0.000   0.000   0.000
   81        0.000   0.000   0.000   0.000
   82       -0.000  -0.000   0.000  -0.000
   83        0.000   0.000   0.000   0.000
   84        0.000   0.000   0.000   0.000
   85       -0.000   0.000   0.000   0.000
   86       -0.000   0.005   0.000   0.005
   87       -0.000  -0.000   0.000  -0.000
   88       -0.000  -0.000   0.000  -0.000
   89        0.000   0.001   0.000   0.001
   90        0.000   0.000   0.000   0.000
   91       -0.000   0.000   0.000   0.000
   92       -0.000  -0.000   0.000  -0.000
   93        0.000   0.001   0.000   0.001
   94        0.000   0.000   0.000   0.000
   95       -0.000  -0.000   0.000  -0.000
   96       -0.000  -0.000   0.000  -0.000
   97       -0.000  -0.000   0.000  -0.000
   98       -0.000  -0.000   0.000  -0.000
   99       -0.000   0.005   0.000   0.005
  100       -0.000   0.000   0.000   0.000
  101       -0.000   0.005   0.000   0.005
  102       -0.000   0.000   0.000   0.000
  103        0.000   0.000   0.000   0.000
  104       -0.000  -0.000   0.000  -0.000
  105       -0.000  -0.000   0.000  -0.000
  106       -0.000  -0.000   0.000  -0.000
  107       -0.000  -0.000   0.000  -0.000
  108        0.000   0.000   0.000   0.000
  109       -0.000  -0.000   0.000  -0.000
  110       -0.000   0.000   0.000  -0.000
  111       -0.000   0.005   0.000   0.005
  112       -0.000  -0.000   0.000  -0.000
  113       -0.000  -0.000   0.000  -0.000
  114        0.000   0.001   0.000   0.001
  115        0.000   0.000   0.000   0.000
  116        0.000   0.000   0.000   0.000
  117       -0.000  -0.000   0.000  -0.000
  118       -0.000  -0.000   0.000  -0.000
  119       -0.000  -0.000   0.000  -0.000
  120        0.000   0.000   0.000   0.000
  121       -0.000  -0.000   0.000  -0.000
  122       -0.000  -0.000   0.000  -0.000
  123        0.000   0.001   0.000   0.001
  124        0.000   0.001   0.000   0.001
  125       -0.000   0.005   0.000   0.005
  126       -0.000   0.000   0.000   0.000
  127        0.000   0.000   0.000   0.000
  128       -0.000   0.000   0.000   0.000
  129        0.000   0.000   0.000   0.000
  130       -0.000  -0.000   0.000  -0.000
  131        0.000   0.000   0.000   0.000
  132       -0.000  -0.000   0.000  -0.000
  133       -0.000  -0.000   0.000  -0.000
  134       -0.000  -0.000   0.000  -0.000
  135       -0.000  -0.000   0.000  -0.000
  136       -0.000  -0.000   0.000  -0.000
  137       -0.000   0.000   0.000   0.000
  138       -0.000  -0.000   0.000  -0.000
  139       -0.000   0.000   0.000   0.000
  140       -0.000  -0.000   0.000  -0.000
  141       -0.000  -0.000   0.000  -0.000
  142       -0.000  -0.000   0.000  -0.000
  143        0.000   0.000   0.000   0.000
  144       -0.000  -0.000   0.000  -0.000
  145       -0.001   0.036   0.000   0.036
  146        0.000   0.001   0.000   0.001
  147        0.000   0.001   0.000   0.001
  148       -0.000   0.000   0.000   0.000
  149       -0.000  -0.000   0.000  -0.000
  150        0.000   0.000   0.000   0.000
  151       -0.000  -0.000   0.000  -0.000
  152       -0.000  -0.000   0.000  -0.000
  153       -0.000  -0.000   0.000  -0.000
  154       -0.000  -0.000   0.000  -0.000
  155       -0.000  -0.000   0.000  -0.000
  156        0.000   0.001   0.000   0.001
  157        0.000   0.009   0.000   0.010
  158       -0.000   0.002   0.000   0.002
  159        0.000   0.001   0.000   0.001
  160        0.000   0.001   0.000   0.001
  161        0.000   0.000   0.000   0.000
  162        0.000   0.000   0.000   0.000
  163       -0.000  -0.000   0.000  -0.000
  164       -0.000  -0.000   0.000  -0.000
  165       -0.000  -0.000   0.000  -0.000
  166       -0.000  -0.000   0.000  -0.000
  167       -0.000  -0.000   0.000  -0.000
  168       -0.000  -0.000   0.000  -0.000
  169       -0.000  -0.000   0.000  -0.000
  170       -0.001   0.036   0.000   0.036
  171       -0.000  -0.000   0.000  -0.000
  172       -0.000   0.002   0.000   0.002
  173        0.000   0.000   0.000   0.000
  174       -0.000  -0.000   0.000  -0.000
  175       -0.000  -0.000   0.000  -0.000
  176        0.000   0.000   0.000   0.000
  177        0.000   0.000   0.000   0.000
  178        0.000   0.000   0.000   0.001
  179       -0.000  -0.000   0.000  -0.000
  180        0.000   0.001   0.000   0.001
  181        0.000   0.009   0.000   0.010
  182        0.000   0.009   0.000   0.010
  183       -0.000  -0.000   0.000  -0.000
  184        0.000   0.000   0.000   0.000
  185       -0.000   0.000   0.000   0.000
  186       -0.000  -0.000   0.000  -0.000
  187       -0.000  -0.000   0.000  -0.000
  188        0.000   0.000   0.000   0.000
  189       -0.000  -0.000   0.000  -0.000
  190        0.000   0.000   0.000   0.000
  191       -0.000  -0.000   0.000  -0.000
  192       -0.000  -0.000   0.000  -0.000
  193        0.000   0.001   0.000   0.001
  194       -0.000   0.002   0.000   0.002
  195       -0.000   0.002   0.000   0.002
  196       -0.000   0.002   0.000   0.002
  197       -0.000   0.000   0.000   0.000
  198       -0.000  -0.000   0.000  -0.000
  199       -0.000  -0.000   0.000  -0.000
  200       -0.000  -0.000   0.000  -0.000
  201       -0.000  -0.000   0.000  -0.000
  202       -0.000  -0.000   0.000  -0.000
  203        0.000   0.000   0.000   0.001
  204       -0.000  -0.000   0.000  -0.000
  205        0.000   0.000   0.000   0.001
  206       -0.000   0.002   0.000   0.002
  207        0.000   0.001   0.000   0.001
  208       -0.001   0.036   0.000   0.036
  209        0.000   0.001   0.000   0.001
  210       -0.000  -0.000   0.000  -0.000
  211        0.000   0.000   0.000   0.000
  212        0.000   0.000   0.000   0.000
  213        0.000   0.000   0.000   0.000
  214       -0.000  -0.000   0.000  -0.000
  215       -0.000  -0.000   0.000  -0.000
  216        0.000   0.000   0.000   0.000
  217       -0.000  -0.000   0.000  -0.000
  218       -0.000   0.000   0.000   0.000
  219       -0.000   0.000   0.000   0.000
  220        0.000   0.000   0.000   0.000
  221       -0.000   0.000   0.000   0.000
  222       -0.000   0.000   0.000   0.000
  223        0.000   0.000   0.000   0.000
  224        0.000   0.000   0.000   0.000
  225       -0.000  -0.000   0.000  -0.000
  226        0.000   0.000   0.000   0.000
  227        0.000   0.000   0.000   0.000
  228        0.000   0.000   0.000   0.000
  229       -0.000  -0.000   0.000  -0.000
  230       -0.000  -0.000   0.000  -0.000
  231       -0.000  -0.000   0.000  -0.000
  232        0.000   0.000   0.000   0.000
  233       -0.000   0.000   0.000   0.000
  234       -0.000   0.000   0.000   0.000
  235       -0.000  -0.000   0.000  -0.000
  236       -0.000  -0.001   0.000  -0.001
  237        0.000   0.000   0.000   0.000
  238       -0.000  -0.000   0.000  -0.000
  239       -0.000   0.000   0.000   0.000
  240       -0.000   0.000   0.000   0.000
  241       -0.000   0.000   0.000   0.000
  242       -0.000  -0.000   0.000  -0.000
  243        0.000   0.000   0.000   0.000
  244       -0.000  -0.000   0.000  -0.000
  245       -0.000   0.000   0.000   0.000
  246        0.000   0.000   0.000   0.000
  247       -0.000  -0.000   0.000  -0.000
  248       -0.000   0.000   0.000   0.000
  249       -0.000   0.000   0.000   0.000
  250       -0.000   0.000   0.000   0.000
  251        0.000   0.000   0.000   0.000
  252       -0.000  -0.000   0.000  -0.000
  253       -0.000   0.000   0.000   0.000
  254       -0.000  -0.000   0.000  -0.000
  255       -0.000  -0.000   0.000  -0.000
  256       -0.000   0.000   0.000   0.000
  257        0.000   0.000   0.000   0.000
  258        0.000   0.000   0.000   0.000
  259        0.000   0.000   0.000   0.000
  260       -0.000  -0.000   0.000  -0.000
  261       -0.000  -0.000   0.000  -0.000
  262       -0.000  -0.000   0.000  -0.000
  263        0.000   0.000   0.000   0.000
  264       -0.000   0.000   0.000   0.000
  265       -0.000   0.000   0.000   0.000
  266        0.000   0.000   0.000   0.000
  267        0.000   0.000   0.000   0.000
  268       -0.000  -0.000   0.000  -0.000
  269        0.000   0.000   0.000   0.000
  270       -0.000   0.000   0.000   0.000
  271       -0.000   0.000   0.000   0.000
  272       -0.000   0.000   0.000   0.000
  273       -0.000  -0.000   0.000  -0.000
  274        0.000   0.000   0.000   0.000
  275       -0.000   0.000   0.000   0.000
  276       -0.000  -0.000   0.000  -0.000
  277       -0.000   0.000   0.000   0.000
  278       -0.000  -0.000   0.000  -0.000
  279       -0.000   0.000   0.000   0.000
  280       -0.000  -0.001   0.000  -0.001
  281        0.000   0.000   0.000   0.000
  282       -0.000  -0.000   0.000  -0.000
  283       -0.000   0.000   0.000   0.000
  284       -0.000  -0.000   0.000  -0.000
  285       -0.000  -0.000   0.000  -0.000
  286       -0.000  -0.000   0.000  -0.000
  287        0.000   0.000   0.000   0.000
  288        0.005   0.196   0.000   0.201
--------------------------------------------------
tot          0.007   0.419   0.000   0.426
 

 total amount of memory used by VASP MPI-rank0    60611. kBytes
=======================================================================

   base      :      30000. kBytes
   nonlr-proj:       1993. kBytes
   fftplans  :       2974. kBytes
   grid      :       4333. kBytes
   one-center:         36. kBytes
   HF        :          9. kBytes
   wavefun   :       1173. kBytes
   fock_wrk  :      20093. kBytes
 
  
  
 General timing and accounting informations for this job:
 ========================================================
  
                  Total CPU time used (sec):     2090.236
                            User time (sec):     2083.456
                          System time (sec):        6.781
                         Elapsed time (sec):     2091.699
  
                   Maximum memory used (kb):     1162996.
                   Average memory used (kb):          N/A
  
                          Minor page faults:        63862
                          Major page faults:            0
                 Voluntary context switches:        18233
