 vasp.6.4.2 20Jul23 (build Nov 06 2023 14:18:49) gamma-only                     
  
 executed on             LinuxIFC date 2024.10.18  14:55:15
 running  816 mpi-ranks, on   17 nodes
 distrk:  each k-point on  816 cores,    1 groups
 distr:  one band on NCORE=  24 cores,   34 groups


--------------------------------------------------------------------------------------------------------


 INCAR:
   FERDO = 576*1 0 1 306*0
   FERWE = 576*1 308*0
   NELECT = 1153
   NCORE = 24
   LREAL = Auto
   ISTART = 0
   ICHARG = 2
   LORBIT = 11
   ENCUT = 500
   EDIFF = 1E-4
   NELM = 60
   NELMIN = 4
   IBRION = 1
   NSW = 900
   POTIM = 0.3
   ISIF = 2
   EDIFFG = -1E-2
   ADDGRID = .TRUE.
   ISMEAR = -2
   IVDW = 11
   VDW_S8 = 0.109
   VDW_SR = 1.129
   ISPIN = 2
   GGA = PE
   LHFCALC = .TRUE.
   AEXX = 0.32
   HFSCREEN = 0.2
   ALGO = Normal
   TIME = 0.4
   PRECFOCK = Fast

 POTCAR:    PAW_PBE As 22Sep2009                  
 POTCAR:    PAW_PBE N 08Apr2002                   
 POTCAR:    PAW_PBE B 06Sep2000                   
 -----------------------------------------------------------------------------
|                                                                             |
|           W    W    AA    RRRRR   N    N  II  N    N   GGGG   !!!           |
|           W    W   A  A   R    R  NN   N  II  NN   N  G    G  !!!           |
|           W    W  A    A  R    R  N N  N  II  N N  N  G       !!!           |
|           W WW W  AAAAAA  RRRRR   N  N N  II  N  N N  G  GGG   !            |
|           WW  WW  A    A  R   R   N   NN  II  N   NN  G    G                |
|           W    W  A    A  R    R  N    N  II  N    N   GGGG   !!!           |
|                                                                             |
|     You use a magnetic or noncollinear calculation, but did not specify     |
|     the initial magnetic moment with the MAGMOM tag. Note that a            |
|     default of 1 will be used for all atoms. This ferromagnetic setup       |
|     may break the symmetry of the crystal, in particular it may rule        |
|     out finding an antiferromagnetic solution. Thence, we recommend         |
|     setting the initial magnetic moment manually or verifying carefully     |
|     that this magnetic setup is desired.                                    |
|                                                                             |
 -----------------------------------------------------------------------------

 POTCAR:    PAW_PBE As 22Sep2009                  
   SHA256 =  bc8fb55b00baa90d383a523722e1771deb40ea3f17a5ce25913641995975acad As/POTCAR             
   COPYR  = (c) Copyright 22Sep2009 Georg Kresse                                                    
   COPYR  = This file is part of the software VASP. Any use, copying, and all other rights are regul
   COPYR  = If you do not have a valid VASP license, you may not use, copy or distribute this file. 
   VRHFIN =As: s2p3                                                                                 
   LEXCH  = PE                                                                                      
   EATOM  =   170.1867 eV,   12.5084 Ry                                                             
                                                                                                    
   TITEL  = PAW_PBE As 22Sep2009                                                                    
   LULTRA =        F    use ultrasoft PP ?                                                          
   IUNSCR =        1    unscreen: 0-lin 1-nonlin 2-no                                               
   RPACOR =    1.900    partial core radius                                                         
   POMASS =   74.922; ZVAL   =    5.000    mass and valenz                                          
   RCORE  =    2.100    outmost cutoff radius                                                       
   RWIGS  =    2.300; RWIGS  =    1.217    wigner-seitz radius (au A)                               
   ENMAX  =  208.702; ENMIN  =  156.526 eV                                                          
   ICORE  =        3    local potential                                                             
   LCOR   =        T    correct aug charges                                                         
   LPAW   =        T    paw PP                                                                      
   EAUG   =  462.758                                                                                
   DEXC   =    0.000                                                                                
   RMAX   =    2.144    core radius for proj-oper                                                   
   RAUG   =    1.300    factor for augmentation sphere                                              
   RDEP   =    2.140    radius for radial grids                                                     
   RDEPT  =    1.956    core radius for aug-charge                                                  
                                                                                                    
   Atomic configuration                                                                             
   10 entries                                                                                       
     n  l   j            E        occ.                                                              
     1  0  0.50    -11718.0418   2.0000                                                             
     2  0  0.50     -1486.5454   2.0000                                                             
     2  1  1.50     -1303.3889   6.0000                                                             
     3  0  0.50      -190.2849   2.0000                                                             
     3  1  1.50      -133.6555   6.0000                                                             
     3  2  2.50       -40.6443  10.0000                                                             
     4  0  0.50       -14.4936   2.0000                                                             
     4  1  0.50        -5.1947   3.0000                                                             
     4  2  1.50        -5.4423   0.0000                                                             
     4  3  2.50        -5.4423   0.0000                                                             
   Description                                                                                      
     l       E           TYP  RCUT    TYP  RCUT                                                     
     0    -14.4935570     23  2.100                                                                 
     0    -11.9212055     23  2.100                                                                 
     1     -5.1947127     23  2.100                                                                 
     1     27.2116520     23  2.100                                                                 
     2     -5.4423304     23  2.100                                                                 
     3     -1.3605826      7  2.100                                                                 
  local pseudopotential read in
  partial core-charges read in
  partial kinetic energy density read in
  atomic valenz-charges read in
  non local Contribution for L=           0  read in
    real space projection operators read in
  non local Contribution for L=           0  read in
    real space projection operators read in
  non local Contribution for L=           1  read in
    real space projection operators read in
  non local Contribution for L=           1  read in
    real space projection operators read in
  non local Contribution for L=           2  read in
    real space projection operators read in
    PAW grid and wavefunctions read in
 
   number of l-projection  operators is LMAX  =           5
   number of lm-projection operators is LMMAX =          13
 
 POTCAR:    PAW_PBE N 08Apr2002                   
   SHA256 =  e053789ff3a61a86a1b75d8a110fcc91f86041011e7b0817c7c99e4e8a6349d7 N/POTCAR              
   COPYR  = (c) Copyright 08Apr2002 Georg Kresse                                                    
   COPYR  = This file is part of the software VASP. Any use, copying, and all other rights are regul
   COPYR  = If you do not have a valid VASP license, you may not use, copy or distribute this file. 
   VRHFIN =N: s2p3                                                                                  
   LEXCH  = PE                                                                                      
   EATOM  =   264.5486 eV,   19.4438 Ry                                                             
                                                                                                    
   TITEL  = PAW_PBE N 08Apr2002                                                                     
   LULTRA =        F    use ultrasoft PP ?                                                          
   IUNSCR =        1    unscreen: 0-lin 1-nonlin 2-no                                               
   RPACOR =    1.200    partial core radius                                                         
   POMASS =   14.001; ZVAL   =    5.000    mass and valenz                                          
   RCORE  =    1.500    outmost cutoff radius                                                       
   RWIGS  =    1.400; RWIGS  =    0.741    wigner-seitz radius (au A)                               
   ENMAX  =  400.000; ENMIN  =  300.000 eV                                                          
   ICORE  =        2    local potential                                                             
   LCOR   =        T    correct aug charges                                                         
   LPAW   =        T    paw PP                                                                      
   EAUG   =  627.112                                                                                
   DEXC   =    0.000                                                                                
   RMAX   =    1.529    core radius for proj-oper                                                   
   RAUG   =    1.300    factor for augmentation sphere                                              
   RDEP   =    1.514    radius for radial grids                                                     
   RDEPT  =    1.338    core radius for aug-charge                                                  
                                                                                                    
   Atomic configuration                                                                             
    4 entries                                                                                       
     n  l   j            E        occ.                                                              
     1  0  0.50      -384.7179   2.0000                                                             
     2  0  0.50       -18.5828   2.0000                                                             
     2  1  0.50        -7.0898   3.0000                                                             
     3  2  1.50        -6.8029   0.0000                                                             
   Description                                                                                      
     l       E           TYP  RCUT    TYP  RCUT                                                     
     0    -18.5828119     23  1.200                                                                 
     0    -13.5018863     23  1.200                                                                 
     1     -7.0897853     23  1.500                                                                 
     1      9.5240782     23  1.500                                                                 
     2     -6.8029130      7  1.500                                                                 
  local pseudopotential read in
  partial core-charges read in
  partial kinetic energy density read in
  atomic valenz-charges read in
  non local Contribution for L=           0  read in
    real space projection operators read in
  non local Contribution for L=           0  read in
    real space projection operators read in
  non local Contribution for L=           1  read in
    real space projection operators read in
  non local Contribution for L=           1  read in
    real space projection operators read in
    PAW grid and wavefunctions read in
 
   number of l-projection  operators is LMAX  =           4
   number of lm-projection operators is LMMAX =           8
 
 POTCAR:    PAW_PBE B 06Sep2000                   
   SHA256 =  a32ced30f5ae56fd4d10b4325ff17eb3e4e38ee0f4288bc219fb012fddfa6e97 B/POTCAR              
   COPYR  = (c) Copyright 06Sep2000 Georg Kresse                                                    
   COPYR  = This file is part of the software VASP. Any use, copying, and all other rights are regul
   COPYR  = If you do not have a valid VASP license, you may not use, copy or distribute this file. 
   VRHFIN =B: s2p1                                                                                  
   LEXCH  = PE                                                                                      
   EATOM  =    71.1703 eV,    5.2309 Ry                                                             
                                                                                                    
   TITEL  = PAW_PBE B 06Sep2000                                                                     
   LULTRA =        F    use ultrasoft PP ?                                                          
   IUNSCR =        1    unscreen: 0-lin 1-nonlin 2-no                                               
   RPACOR =    1.200    partial core radius                                                         
   POMASS =   10.811; ZVAL   =    3.000    mass and valenz                                          
   RCORE  =    1.700    outmost cutoff radius                                                       
   RWIGS  =    1.710; RWIGS  =    0.905    wigner-seitz radius (au A)                               
   ENMAX  =  318.614; ENMIN  =  238.960 eV                                                          
   ICORE  =        2    local potential                                                             
   LCOR   =        T    correct aug charges                                                         
   LPAW   =        T    paw PP                                                                      
   EAUG   =  535.514                                                                                
   DEXC   =    0.000                                                                                
   RMAX   =    1.732    core radius for proj-oper                                                   
   RAUG   =    1.300    factor for augmentation sphere                                              
   RDEP   =    1.757    radius for radial grids                                                     
   RDEPT  =    1.436    core radius for aug-charge                                                  
                                                                                                    
   Atomic configuration                                                                             
    4 entries                                                                                       
     n  l   j            E        occ.                                                              
     1  0  0.50      -180.5896   2.0000                                                             
     2  0  0.50        -9.4431   2.0000                                                             
     2  1  0.50        -3.6068   1.0000                                                             
     3  2  1.50        -4.0817   0.0000                                                             
   Description                                                                                      
     l       E           TYP  RCUT    TYP  RCUT                                                     
     0     -9.4430752     23  1.500                                                                 
     0      0.8675899     23  1.500                                                                 
     1     -3.6067955     23  1.700                                                                 
     1      6.1086146     23  1.700                                                                 
     2     -4.0817478      7  1.700                                                                 
  local pseudopotential read in
  partial core-charges read in
  partial kinetic energy density read in
  atomic valenz-charges read in
  non local Contribution for L=           0  read in
    real space projection operators read in
  non local Contribution for L=           0  read in
    real space projection operators read in
  non local Contribution for L=           1  read in
    real space projection operators read in
  non local Contribution for L=           1  read in
    real space projection operators read in
    PAW grid and wavefunctions read in
 
   number of l-projection  operators is LMAX  =           4
   number of lm-projection operators is LMMAX =           8
 
 Optimization of the real space projectors (new method)

 maximal supplied QI-value         = 17.95
 optimisation between [QCUT,QGAM] = [ 11.31, 22.80] = [ 35.82,145.56] Ry 
 Optimized for a Real-space Cutoff    1.16 Angstroem

   l    n(q)    QCUT    max X(q) W(low)/X(q) W(high)/X(q)  e(spline) 
   0      8    11.310   117.213    0.24E-03    0.13E-03    0.91E-07
   0      8    11.310    98.411    0.24E-03    0.13E-03    0.90E-07
   1      7    11.310    10.093    0.47E-03    0.61E-03    0.94E-07
   1      7    11.310     5.228    0.40E-03    0.57E-03    0.92E-07
   2      7    11.310     4.067    0.24E-03    0.11E-03    0.37E-07
 Optimization of the real space projectors (new method)

 maximal supplied QI-value         = 25.13
 optimisation between [QCUT,QGAM] = [ 11.31, 22.87] = [ 35.82,146.48] Ry 
 Optimized for a Real-space Cutoff    1.27 Angstroem

   l    n(q)    QCUT    max X(q) W(low)/X(q) W(high)/X(q)  e(spline) 
   0      9    11.310    79.467    0.75E-04    0.16E-03    0.36E-06
   0      9    11.310    66.151    0.74E-04    0.16E-03    0.36E-06
   1      8    11.310    17.416    0.35E-03    0.12E-03    0.95E-06
   1      8    11.310    12.382    0.37E-03    0.13E-03    0.98E-06
 Optimization of the real space projectors (new method)

 maximal supplied QI-value         = 22.11
 optimisation between [QCUT,QGAM] = [ 11.28, 22.77] = [ 35.61,145.23] Ry 
 Optimized for a Real-space Cutoff    1.16 Angstroem

   l    n(q)    QCUT    max X(q) W(low)/X(q) W(high)/X(q)  e(spline) 
   0      8    11.276    53.033    0.48E-03    0.56E-03    0.11E-06
   0      8    11.276    34.740    0.48E-03    0.55E-03    0.11E-06
   1      7    11.276    30.949    0.26E-03    0.19E-04    0.19E-06
   1      7    11.276    19.518    0.24E-03    0.14E-04    0.18E-06
  PAW_PBE As 22Sep2009                  :
 energy of atom  1       EATOM= -170.1867
 kinetic energy error for atom=    0.0005 (will be added to EATOM!!)
  PAW_PBE N 08Apr2002                   :
 energy of atom  2       EATOM= -264.5486
 kinetic energy error for atom=    0.0138 (will be added to EATOM!!)
  PAW_PBE B 06Sep2000                   :
 energy of atom  3       EATOM=  -71.1703
 kinetic energy error for atom=    0.0012 (will be added to EATOM!!)
 
 
 POSCAR: Species order: X N B
  positions in direct lattice
  velocities in cartesian coordinates
 exchange correlation table for  LEXCH =        8
   RHO(1)=    0.500       N(1)  =     2000
   RHO(2)=  100.500       N(2)  =     4000

 VTST: version 4.1, (05/19/21)

 CHAIN: initializing optimizer
 
 OPT: Using VASP QUASI-newton optimizer
 CHAIN: Read ICHAIN            0
 
 POSCAR: Species order: X N B
  positions in direct lattice
  velocities in cartesian coordinates
 


--------------------------------------------------------------------------------------------------------


 ion  position               nearest neighbor table
   1  0.444  0.389  0.375-  87 1.69 138 1.69 100 1.69
   2  0.111  0.056  0.125- 253 1.44 217 1.44 276 1.44
   3  0.611  0.556  0.125- 281 1.44 218 1.44 255 1.44
   4  0.444  0.056  0.125- 219 1.44 256 1.44 278 1.44
   5  0.944  0.556  0.125- 220 1.44 283 1.44 251 1.44
   6  0.778  0.056  0.125- 221 1.44 258 1.44 282 1.44
   7  0.111  0.722  0.625- 259 1.44 284 1.44 222 1.44
   8  0.444  0.722  0.625- 257 1.44 262 1.44 223 1.44
   9  0.278  0.222  0.625- 261 1.44 224 1.44 285 1.44
  10  0.778  0.722  0.625- 286 1.44 225 1.44 263 1.44
  11  0.611  0.222  0.625- 226 1.44 264 1.44 287 1.44
  12  0.944  0.222  0.625- 260 1.44 227 1.44 288 1.44
  13  0.278  0.722  0.125- 280 1.44 266 1.44 228 1.44
  14  0.111  0.222  0.125- 267 1.44 229 1.44 217 1.44
  15  0.444  0.222  0.125- 230 1.44 269 1.44 219 1.44
  16  0.611  0.722  0.125- 218 1.44 231 1.44 268 1.44
  17  0.944  0.722  0.125- 220 1.44 232 1.44 265 1.44
  18  0.778  0.222  0.125- 233 1.44 270 1.44 221 1.44
  19  0.111  0.889  0.625- 272 1.44 234 1.44 222 1.44
  20  0.444  0.889  0.625- 223 1.44 235 1.44 273 1.44
  21  0.278  0.389  0.625- 274 1.44 224 1.44 236 1.44
  22  0.611  0.389  0.625- 237 1.44 226 1.44 277 1.44
  23  0.778  0.889  0.625- 225 1.44 275 1.44 238 1.44
  24  0.944  0.389  0.625- 271 1.44 239 1.44 227 1.44
  25  0.111  0.389  0.125- 279 1.44 229 1.44 240 1.44
  26  0.278  0.889  0.125- 241 1.44 278 1.44 228 1.44
  27  0.611  0.889  0.125- 231 1.44 242 1.44 282 1.44
  28  0.444  0.389  0.125- 230 1.44 243 1.44 281 1.44
  29  0.944  0.889  0.125- 232 1.44 276 1.44 244 1.44
  30  0.778  0.389  0.125- 245 1.44 233 1.44 283 1.44
  31  0.278  0.556  0.625- 257 1.44 236 1.44 246 1.44
  32  0.111  0.056  0.625- 285 1.44 247 1.44 234 1.44
  33  0.611  0.556  0.625- 237 1.44 248 1.44 286 1.44
  34  0.444  0.056  0.625- 249 1.44 287 1.44 235 1.44
  35  0.944  0.556  0.625- 250 1.44 239 1.44 284 1.44
  36  0.111  0.556  0.125- 280 1.44 240 1.44 251 1.44
  37  0.778  0.056  0.625- 252 1.44 288 1.44 238 1.44
  38  0.278  0.056  0.125- 219 1.44 253 1.44 241 1.44
  39  0.444  0.556  0.125- 243 1.44 218 1.44 254 1.44
  40  0.778  0.556  0.125- 245 1.44 255 1.44 220 1.44
  41  0.611  0.056  0.125- 256 1.44 242 1.44 221 1.44
  42  0.444  0.556  0.625- 274 1.44 248 1.44 257 1.44
  43  0.944  0.056  0.125- 217 1.44 244 1.44 258 1.44
  44  0.278  0.722  0.625- 246 1.44 223 1.44 259 1.44
  45  0.111  0.222  0.625- 224 1.44 260 1.44 247 1.44
  46  0.444  0.222  0.625- 261 1.44 226 1.44 249 1.44
  47  0.611  0.722  0.625- 248 1.44 262 1.44 225 1.44
  48  0.944  0.722  0.625- 250 1.44 263 1.44 222 1.44
  49  0.778  0.222  0.625- 264 1.44 227 1.44 252 1.44
  50  0.111  0.722  0.125- 228 1.44 251 1.44 265 1.44
  51  0.444  0.722  0.125- 254 1.44 231 1.44 266 1.44
  52  0.278  0.222  0.125- 230 1.44 267 1.44 253 1.44
  53  0.778  0.722  0.125- 255 1.44 268 1.44 232 1.44
  54  0.611  0.222  0.125- 269 1.44 233 1.44 256 1.44
  55  0.944  0.222  0.125- 229 1.44 270 1.44 258 1.44
  56  0.111  0.389  0.625- 236 1.44 260 1.44 271 1.44
  57  0.278  0.889  0.625- 272 1.44 235 1.44 259 1.44
  58  0.611  0.889  0.625- 262 1.44 273 1.44 238 1.44
  59  0.444  0.389  0.625- 261 1.44 274 1.44 237 1.44
  60  0.944  0.889  0.625- 263 1.44 234 1.44 275 1.44
  61  0.111  0.889  0.125- 241 1.44 276 1.44 265 1.44
  62  0.778  0.389  0.625- 277 1.44 264 1.44 239 1.44
  63  0.444  0.889  0.125- 266 1.44 278 1.44 242 1.44
  64  0.278  0.389  0.125- 243 1.44 267 1.44 279 1.44
  65  0.278  0.556  0.125- 254 1.44 279 1.44 280 1.44
  66  0.611  0.389  0.125- 281 1.44 269 1.44 245 1.44
  67  0.778  0.889  0.125- 268 1.44 244 1.44 282 1.44
  68  0.944  0.389  0.125- 240 1.44 283 1.44 270 1.44
  69  0.111  0.556  0.625- 246 1.44 271 1.44 284 1.44
  70  0.278  0.056  0.625- 249 1.44 285 1.44 272 1.44
  71  0.778  0.556  0.625- 277 1.44 286 1.44 250 1.44
  72  0.611  0.056  0.625- 287 1.44 273 1.44 252 1.44
  73  0.944  0.056  0.625- 247 1.44 275 1.44 288 1.44
  74  0.055  0.110  0.375- 158 1.43 186 1.44 146 1.44
  75  0.556  0.612  0.375- 147 1.45 182 1.45 160 1.45
  76  0.388  0.106  0.375- 159 1.40 148 1.43 181 1.45
  77  0.891  0.612  0.375- 183 1.42 161 1.43 149 1.43
  78  0.722  0.111  0.375- 162 1.43 184 1.43 150 1.43
  79  0.056  0.778  0.875- 163 1.44 191 1.44 151 1.44
  80  0.389  0.778  0.875- 152 1.44 187 1.44 164 1.44
  81  0.222  0.278  0.875- 153 1.44 165 1.44 188 1.44
  82  0.722  0.778  0.875- 190 1.44 154 1.44 167 1.44
  83  0.556  0.278  0.875- 166 1.44 189 1.44 155 1.44
  84  0.889  0.278  0.875- 168 1.44 192 1.44 156 1.44
  85  0.222  0.778  0.375- 170 1.43 157 1.43 193 1.43
  86  0.055  0.277  0.375- 158 1.43 198 1.44 169 1.44
  87  0.379  0.258  0.375- 195 1.43 159 1.43   1 1.69
  88  0.556  0.779  0.375- 160 1.43 171 1.44 194 1.44
  89  0.890  0.779  0.375- 196 1.42 172 1.42 161 1.44
  90  0.723  0.277  0.375- 197 1.43 162 1.44 173 1.44
  91  0.056  0.944  0.875- 175 1.44 163 1.44 203 1.44
  92  0.389  0.944  0.875- 177 1.44 200 1.44 164 1.44
  93  0.222  0.444  0.875- 165 1.44 174 1.44 199 1.44
  94  0.556  0.444  0.875- 202 1.44 166 1.44 176 1.44
  95  0.722  0.944  0.875- 201 1.44 167 1.44 180 1.44
  96  0.889  0.444  0.875- 205 1.44 178 1.44 168 1.44
  97  0.054  0.445  0.375- 169 1.42 211 1.42 179 1.44
  98  0.221  0.943  0.375- 181 1.42 204 1.43 170 1.43
  99  0.556  0.945  0.375- 171 1.43 184 1.43 206 1.44
 100  0.379  0.454  0.375- 207 1.43 182 1.43   1 1.69
 101  0.889  0.945  0.375- 210 1.43 186 1.43 172 1.44
 102  0.728  0.446  0.375- 209 1.40 173 1.43 183 1.45
 103  0.222  0.611  0.875- 174 1.44 212 1.44 187 1.44
 104  0.056  0.111  0.875- 188 1.44 175 1.44 216 1.44
 105  0.556  0.611  0.875- 176 1.44 185 1.44 190 1.44
 106  0.389  0.111  0.875- 189 1.44 213 1.44 177 1.44
 107  0.889  0.611  0.875- 214 1.44 191 1.44 178 1.44
 108  0.056  0.611  0.375- 179 1.43 149 1.43 193 1.43
 109  0.722  0.111  0.875- 215 1.44 192 1.44 180 1.44
 110  0.218  0.106  0.375- 195 1.40 146 1.43 181 1.45
 111  0.388  0.615  0.375- 182 1.40 194 1.43 208 1.45
 112  0.728  0.615  0.375- 147 1.40 196 1.43 183 1.45
 113  0.556  0.110  0.375- 197 1.43 184 1.44 148 1.44
 114  0.389  0.611  0.875- 185 1.44 174 1.44 152 1.44
 115  0.889  0.111  0.375- 198 1.43 186 1.43 150 1.43
 116  0.222  0.778  0.875- 200 1.44 187 1.44 151 1.44
 117  0.056  0.278  0.875- 188 1.44 199 1.44 156 1.44
 118  0.389  0.278  0.875- 202 1.44 153 1.44 189 1.44
 119  0.556  0.778  0.875- 190 1.44 152 1.44 201 1.44
 120  0.889  0.778  0.875- 154 1.44 191 1.44 203 1.44
 121  0.722  0.278  0.875- 155 1.44 205 1.44 192 1.44
 122  0.056  0.778  0.375- 204 1.43 161 1.43 193 1.43
 123  0.389  0.779  0.375- 194 1.42 206 1.42 157 1.44
 124  0.221  0.277  0.375- 207 1.45 195 1.45 158 1.45
 125  0.723  0.779  0.375- 160 1.43 210 1.44 196 1.44
 126  0.556  0.277  0.375- 209 1.45 159 1.45 197 1.45
 127  0.889  0.278  0.375- 198 1.43 162 1.43 211 1.44
 128  0.056  0.444  0.875- 199 1.44 212 1.44 168 1.44
 129  0.222  0.944  0.875- 213 1.44 163 1.44 200 1.44
 130  0.556  0.944  0.875- 164 1.44 201 1.44 215 1.44
 131  0.389  0.444  0.875- 202 1.44 165 1.44 185 1.44
 132  0.889  0.944  0.875- 203 1.44 167 1.44 216 1.44
 133  0.054  0.943  0.375- 146 1.42 172 1.42 204 1.44
 134  0.722  0.444  0.875- 166 1.44 214 1.44 205 1.44
 135  0.389  0.943  0.375- 148 1.42 206 1.42 170 1.44
 136  0.218  0.446  0.375- 207 1.40 169 1.43 208 1.45
 137  0.221  0.612  0.375- 208 1.42 179 1.43 157 1.43
 138  0.575  0.454  0.375- 147 1.43 209 1.43   1 1.69
 139  0.722  0.945  0.375- 210 1.43 171 1.43 150 1.43
 140  0.890  0.445  0.375- 173 1.42 211 1.42 149 1.44
 141  0.056  0.611  0.875- 178 1.44 212 1.44 151 1.44
 142  0.222  0.111  0.875- 153 1.44 213 1.44 175 1.44
 143  0.722  0.611  0.875- 176 1.44 214 1.44 154 1.44
 144  0.556  0.111  0.875- 155 1.44 177 1.44 215 1.44
 145  0.889  0.111  0.875- 156 1.44 216 1.44 180 1.44
 146  0.108  0.053  0.375- 133 1.42 110 1.43  74 1.44
 147  0.619  0.564  0.375- 112 1.40 138 1.43  75 1.45
 148  0.445  0.053  0.375- 135 1.42  76 1.43 113 1.44
 149  0.945  0.556  0.375- 108 1.43  77 1.43 140 1.44
 150  0.778  0.056  0.375- 115 1.43  78 1.43 139 1.43
 151  0.111  0.722  0.875- 116 1.44 141 1.44  79 1.44
 152  0.444  0.722  0.875-  80 1.44 119 1.44 114 1.44
 153  0.278  0.222  0.875- 142 1.44  81 1.44 118 1.44
 154  0.778  0.722  0.875- 120 1.44  82 1.44 143 1.44
 155  0.611  0.222  0.875- 121 1.44 144 1.44  83 1.44
 156  0.944  0.222  0.875- 145 1.44  84 1.44 117 1.44
 157  0.278  0.723  0.375-  85 1.43 137 1.43 123 1.44
 158  0.109  0.221  0.375-  74 1.43  86 1.43 124 1.45
 159  0.445  0.214  0.375-  76 1.40  87 1.43 126 1.45
 160  0.612  0.724  0.375- 125 1.43  88 1.43  75 1.45
 161  0.945  0.723  0.375- 122 1.43  77 1.43  89 1.44
 162  0.778  0.222  0.375-  78 1.43 127 1.43  90 1.44
 163  0.111  0.889  0.875-  79 1.44  91 1.44 129 1.44
 164  0.444  0.889  0.875- 130 1.44  80 1.44  92 1.44
 165  0.278  0.389  0.875-  93 1.44  81 1.44 131 1.44
 166  0.611  0.389  0.875- 134 1.44  83 1.44  94 1.44
 167  0.778  0.889  0.875-  95 1.44 132 1.44  82 1.44
 168  0.944  0.389  0.875-  84 1.44 128 1.44  96 1.44
 169  0.108  0.389  0.375-  97 1.42 136 1.43  86 1.44
 170  0.278  0.888  0.375-  85 1.43  98 1.43 135 1.44
 171  0.612  0.890  0.375- 139 1.43  99 1.43  88 1.44
 172  0.944  0.889  0.375-  89 1.42 133 1.42 101 1.44
 173  0.781  0.389  0.375- 140 1.42 102 1.43  90 1.44
 174  0.278  0.556  0.875- 103 1.44 114 1.44  93 1.44
 175  0.111  0.056  0.875-  91 1.44 104 1.44 142 1.44
 176  0.611  0.556  0.875- 143 1.44 105 1.44  94 1.44
 177  0.444  0.056  0.875-  92 1.44 144 1.44 106 1.44
 178  0.944  0.556  0.875- 141 1.44  96 1.44 107 1.44
 179  0.110  0.556  0.375- 108 1.43 137 1.43  97 1.44
 180  0.778  0.056  0.875- 145 1.44  95 1.44 109 1.44
 181  0.276  0.052  0.375-  98 1.42 110 1.45  76 1.45
 182  0.445  0.564  0.375- 111 1.40 100 1.43  75 1.45
 183  0.781  0.557  0.375-  77 1.42 112 1.45 102 1.45
 184  0.612  0.055  0.375-  78 1.43  99 1.43 113 1.44
 185  0.444  0.556  0.875- 114 1.44 105 1.44 131 1.44
 186  0.944  0.055  0.375- 115 1.43 101 1.43  74 1.44
 187  0.278  0.722  0.875- 116 1.44  80 1.44 103 1.44
 188  0.111  0.222  0.875- 117 1.44 104 1.44  81 1.44
 189  0.444  0.222  0.875- 106 1.44  83 1.44 118 1.44
 190  0.611  0.722  0.875-  82 1.44 119 1.44 105 1.44
 191  0.944  0.722  0.875-  79 1.44 120 1.44 107 1.44
 192  0.778  0.222  0.875- 109 1.44  84 1.44 121 1.44
 193  0.111  0.722  0.375- 122 1.43  85 1.43 108 1.43
 194  0.445  0.726  0.375- 123 1.42 111 1.43  88 1.44
 195  0.270  0.214  0.375- 110 1.40  87 1.43 124 1.45
 196  0.781  0.726  0.375-  89 1.42 112 1.43 125 1.44
 197  0.612  0.221  0.375-  90 1.43 113 1.43 126 1.45
 198  0.944  0.222  0.375- 115 1.43 127 1.43  86 1.44
 199  0.111  0.389  0.875- 128 1.44 117 1.44  93 1.44
 200  0.278  0.889  0.875- 116 1.44  92 1.44 129 1.44
 201  0.611  0.889  0.875-  95 1.44 130 1.44 119 1.44
 202  0.444  0.389  0.875- 118 1.44 131 1.44  94 1.44
 203  0.944  0.889  0.875- 132 1.44 120 1.44  91 1.44
 204  0.110  0.888  0.375- 122 1.43  98 1.43 133 1.44
 205  0.778  0.389  0.875-  96 1.44 121 1.44 134 1.44
 206  0.445  0.889  0.375- 135 1.42 123 1.42  99 1.44
 207  0.270  0.389  0.375- 136 1.40 100 1.43 124 1.45
 208  0.276  0.557  0.375- 137 1.42 111 1.45 136 1.45
 209  0.619  0.389  0.375- 102 1.40 138 1.43 126 1.45
 210  0.778  0.890  0.375- 139 1.43 101 1.43 125 1.44
 211  0.944  0.388  0.375- 140 1.42  97 1.42 127 1.44
 212  0.111  0.556  0.875- 141 1.44 128 1.44 103 1.44
 213  0.278  0.056  0.875- 129 1.44 106 1.44 142 1.44
 214  0.778  0.556  0.875- 107 1.44 143 1.44 134 1.44
 215  0.611  0.056  0.875- 109 1.44 130 1.44 144 1.44
 216  0.944  0.056  0.875- 145 1.44 132 1.44 104 1.44
 217  0.055  0.111  0.125-  43 1.44   2 1.44  14 1.44
 218  0.556  0.611  0.125-  16 1.44   3 1.44  39 1.44
 219  0.389  0.111  0.125-   4 1.44  38 1.44  15 1.44
 220  0.889  0.611  0.125-  17 1.44   5 1.44  40 1.44
 221  0.722  0.111  0.125-   6 1.44  41 1.44  18 1.44
 222  0.056  0.778  0.625-   7 1.44  48 1.44  19 1.44
 223  0.389  0.778  0.625-  20 1.44  44 1.44   8 1.44
 224  0.222  0.278  0.625-  45 1.44  21 1.44   9 1.44
 225  0.722  0.778  0.625-  23 1.44  10 1.44  47 1.44
 226  0.556  0.278  0.625-  11 1.44  22 1.44  46 1.44
 227  0.889  0.278  0.625-  12 1.44  49 1.44  24 1.44
 228  0.222  0.778  0.125-  50 1.44  13 1.44  26 1.44
 229  0.055  0.278  0.125-  55 1.44  25 1.44  14 1.44
 230  0.389  0.278  0.124-  52 1.44  15 1.44  28 1.44
 231  0.556  0.778  0.125-  27 1.44  51 1.44  16 1.44
 232  0.889  0.778  0.125-  29 1.44  17 1.44  53 1.44
 233  0.722  0.278  0.125-  18 1.44  30 1.44  54 1.44
 234  0.056  0.944  0.625-  60 1.44  19 1.44  32 1.44
 235  0.389  0.944  0.625-  20 1.44  57 1.44  34 1.44
 236  0.222  0.445  0.625-  56 1.44  31 1.44  21 1.44
 237  0.556  0.445  0.626-  22 1.44  33 1.44  59 1.44
 238  0.722  0.944  0.625-  37 1.44  23 1.44  58 1.44
 239  0.889  0.444  0.625-  24 1.44  35 1.44  62 1.44
 240  0.056  0.444  0.125-  68 1.44  36 1.44  25 1.44
 241  0.222  0.944  0.125-  61 1.44  26 1.44  38 1.44
 242  0.556  0.944  0.125-  27 1.44  41 1.44  63 1.44
 243  0.389  0.445  0.124-  64 1.44  39 1.44  28 1.44
 244  0.889  0.944  0.125-  67 1.44  43 1.44  29 1.44
 245  0.722  0.445  0.125-  30 1.44  40 1.44  66 1.44
 246  0.222  0.611  0.625-  69 1.44  44 1.44  31 1.44
 247  0.055  0.111  0.625-  73 1.44  32 1.44  45 1.44
 248  0.556  0.611  0.625-  47 1.44  33 1.44  42 1.44
 249  0.389  0.111  0.625-  34 1.44  70 1.44  46 1.44
 250  0.889  0.611  0.625-  48 1.44  35 1.44  71 1.44
 251  0.056  0.611  0.125-  50 1.44   5 1.44  36 1.44
 252  0.722  0.111  0.625-  37 1.44  72 1.44  49 1.44
 253  0.222  0.111  0.125-   2 1.44  38 1.44  52 1.44
 254  0.389  0.611  0.125-  51 1.44  65 1.44  39 1.44
 255  0.722  0.611  0.125-  53 1.44  40 1.44   3 1.44
 256  0.556  0.111  0.125-  41 1.44   4 1.44  54 1.44
 257  0.389  0.611  0.625-   8 1.44  31 1.44  42 1.44
 258  0.889  0.111  0.125-   6 1.44  43 1.44  55 1.44
 259  0.222  0.778  0.625-   7 1.44  44 1.44  57 1.44
 260  0.055  0.278  0.625-  12 1.44  56 1.44  45 1.44
 261  0.389  0.278  0.626-   9 1.44  46 1.44  59 1.44
 262  0.556  0.778  0.625-  58 1.44   8 1.44  47 1.44
 263  0.889  0.778  0.625-  60 1.44  48 1.44  10 1.44
 264  0.722  0.278  0.625-  49 1.44  62 1.44  11 1.44
 265  0.056  0.778  0.125-  50 1.44  17 1.44  61 1.44
 266  0.389  0.778  0.125-  63 1.44  13 1.44  51 1.44
 267  0.222  0.278  0.125-  14 1.44  64 1.44  52 1.44
 268  0.722  0.778  0.125-  67 1.44  53 1.44  16 1.44
 269  0.556  0.278  0.125-  54 1.44  66 1.44  15 1.44
 270  0.889  0.278  0.125-  55 1.44  18 1.44  68 1.44
 271  0.056  0.444  0.625-  24 1.44  69 1.44  56 1.44
 272  0.222  0.944  0.625-  19 1.44  57 1.44  70 1.44
 273  0.556  0.944  0.625-  58 1.44  72 1.44  20 1.44
 274  0.389  0.445  0.626-  21 1.44  42 1.44  59 1.44
 275  0.889  0.944  0.625-  23 1.44  73 1.44  60 1.44
 276  0.056  0.944  0.125-  29 1.44  61 1.44   2 1.44
 277  0.722  0.445  0.625-  62 1.44  71 1.44  22 1.44
 278  0.389  0.944  0.125-  63 1.44  26 1.44   4 1.44
 279  0.222  0.445  0.125-  25 1.44  65 1.44  64 1.44
 280  0.222  0.611  0.125-  36 1.44  13 1.44  65 1.44
 281  0.556  0.445  0.124-  66 1.44   3 1.44  28 1.44
 282  0.722  0.944  0.125-   6 1.44  67 1.44  27 1.44
 283  0.889  0.444  0.125-  68 1.44   5 1.44  30 1.44
 284  0.056  0.611  0.625-   7 1.44  35 1.44  69 1.44
 285  0.222  0.111  0.625-  32 1.44  70 1.44   9 1.44
 286  0.722  0.611  0.625-  10 1.44  71 1.44  33 1.44
 287  0.556  0.111  0.625-  72 1.44  34 1.44  11 1.44
 288  0.889  0.111  0.625-  37 1.44  73 1.44  12 1.44
 
  LATTYP: Found a hexagonal cell.
 ALAT       =    14.9363141462
 C/A-ratio  =     0.8932107448
  
  Lattice vectors:
  
 A1 = (  14.9363141462,   0.0000000000,   0.0000000000)
 A2 = (  -7.4681570731,  12.9352274895,  -0.0000000000)
 A3 = (   0.0000000000,   0.0000000000,  13.3412762838)


Analysis of symmetry for initial positions (statically):
=====================================================================
 Subroutine PRICEL returns:
 Original cell was already a primitive cell.
 

 Routine SETGRP: Setting up the symmetry group for a 
 hexagonal supercell.


 Subroutine GETGRP returns: Found 12 space group operations
 (whereof  1 operations were pure point group operations)
 out of a pool of 24 trial point group operations.


The static configuration has the point symmetry C_1 .
 The point group associated with its full space group is D_3h.


Analysis of symmetry for dynamics (positions and initial velocities):
=====================================================================
 Subroutine PRICEL returns:
 Original cell was already a primitive cell.
 

 Routine SETGRP: Setting up the symmetry group for a 
 hexagonal supercell.


 Subroutine GETGRP returns: Found 12 space group operations
 (whereof  1 operations were pure point group operations)
 out of a pool of 24 trial point group operations.


The dynamic configuration has the point symmetry C_1 .
 The point group associated with its full space group is D_3h.


Analysis of structural, dynamic, and magnetic symmetry:
=====================================================================
 Subroutine PRICEL returns:
 Original cell was already a primitive cell.
 

 Routine SETGRP: Setting up the symmetry group for a 
 hexagonal supercell.


 Subroutine GETGRP returns: Found 12 space group operations
 (whereof  1 operations were pure point group operations)
 out of a pool of 24 trial point group operations.


The overall configuration has the point symmetry C_1 .
 The point group associated with its full space group is D_3h.


 Subroutine INISYM returns: Found 12 space group operations
 (whereof  1 operations are pure point group operations),
 and found     1 'primitive' translations


----------------------------------------------------------------------------------------

                                     Primitive cell                                     

  volume of cell :    2577.5962

  direct lattice vectors                    reciprocal lattice vectors
    14.936314146  0.000000000  0.000000000     0.066950922  0.038654133 -0.000000000
    -7.468157073 12.935227490 -0.000000000     0.000000000  0.077308265 -0.000000000
     0.000000000  0.000000000 13.341276284     0.000000000  0.000000000  0.074955348

  length of vectors
    14.936314146 14.936314146 13.341276284     0.077308265  0.077308265  0.074955348

  position of ions in fractional coordinates (direct lattice)
     0.444444444  0.388888889  0.375000000
     0.111102861  0.055538358  0.125145654
     0.611120859  0.555565114  0.125285247
     0.444435497  0.055538358  0.125145654
     0.944455926  0.555564162  0.125115830
     0.777777778  0.055555556  0.125086616
     0.111111111  0.722222222  0.624896135
     0.444435497  0.722230472  0.624854346
     0.277768219  0.222212475  0.624714753
     0.777794975  0.722230472  0.624854346
     0.611113408  0.222219925  0.624835787
     0.944445489  0.222228481  0.624908810
     0.277769171  0.722225097  0.125115830
     0.111106518  0.222219925  0.125164213
     0.444444256  0.222212475  0.125285247
     0.611113408  0.722226816  0.125164213
     0.944455926  0.722225097  0.125115830
     0.777782992  0.222228481  0.125091190
     0.111108236  0.888877407  0.624884170
     0.444434864  0.888884099  0.624906716
     0.277768219  0.388889078  0.624714753
     0.611120859  0.388889078  0.624714753
     0.777782992  0.888887844  0.624908810
     0.944449235  0.388898469  0.624906716
     0.111102861  0.388897837  0.125145654
     0.277769171  0.888877407  0.125115830
     0.611104852  0.888887844  0.125091190
     0.444444444  0.388888889  0.125063860
     0.944449235  0.888884099  0.125093284
     0.777794975  0.388897837  0.125145654
     0.277769040  0.555564294  0.624796181
     0.111102861  0.055538358  0.624854346
     0.611120859  0.555565114  0.624714753
     0.444435497  0.055538358  0.624854346
     0.944455926  0.555564162  0.624884170
     0.111108236  0.555564162  0.125115830
     0.777777778  0.055555556  0.624913384
     0.277769040  0.055538079  0.125203819
     0.444444256  0.555565114  0.125285247
     0.777795254  0.555564294  0.125203819
     0.611104852  0.055550341  0.125091190
     0.444444256  0.555565114  0.624714753
     0.944445489  0.055550341  0.125091190
     0.277769171  0.722225097  0.624884170
     0.111106518  0.222219925  0.624835787
     0.444444256  0.222212475  0.624714753
     0.611113408  0.722226816  0.624835787
     0.944455926  0.722225097  0.624884170
     0.777782992  0.222228481  0.624908810
     0.111111111  0.722222222  0.125103865
     0.444435497  0.722230472  0.125145654
     0.277768219  0.222212475  0.125285247
     0.777794975  0.722230472  0.125145654
     0.611113408  0.222219925  0.125164213
     0.944445489  0.222228481  0.125091190
     0.111102861  0.388897837  0.624854346
     0.277769171  0.888877407  0.624884170
     0.611104852  0.888887844  0.624908810
     0.444444444  0.388888889  0.624936140
     0.944449235  0.888884099  0.624906716
     0.111108236  0.888877407  0.125115830
     0.777794975  0.388897837  0.624854346
     0.444434864  0.888884099  0.125093284
     0.277768219  0.388889078  0.125285247
     0.277769040  0.555564294  0.125203819
     0.611120859  0.388889078  0.125285247
     0.777782992  0.888887844  0.125091190
     0.944449235  0.388898469  0.125093284
     0.111108236  0.555564162  0.624884170
     0.277769040  0.055538079  0.624796181
     0.777795254  0.555564294  0.624796181
     0.611104852  0.055550341  0.624908810
     0.944445489  0.055550341  0.624908810
     0.054631070  0.110487505  0.375000000
     0.556027791  0.612055581  0.375000000
     0.387808185  0.105803561  0.375000000
     0.890746690  0.612040012  0.375000000
     0.722388490  0.110944844  0.375000000
     0.055553551  0.777779782  0.875000000
     0.388894315  0.777779834  0.875000000
     0.222223260  0.277778297  0.875000000
     0.722221819  0.777779776  0.875000000
     0.555555037  0.277778297  0.875000000
     0.888888252  0.277776503  0.875000000
     0.221886807  0.777610070  0.375000000
     0.054631070  0.277476898  0.375000000
     0.379113064  0.258226129  0.375000000
     0.555856435  0.778702264  0.375000000
     0.890333530  0.778961749  0.375000000
     0.722845828  0.277476898  0.375000000
     0.055553499  0.944447814  0.875000000
     0.388894315  0.944447814  0.875000000
     0.222223405  0.444439997  0.875000000
     0.555554005  0.444443669  0.875000000
     0.722222593  0.944445187  0.875000000
     0.888885519  0.444439018  0.875000000
     0.054371584  0.444705115  0.375000000
     0.221293322  0.942586643  0.375000000
     0.555814079  0.944573706  0.375000000
     0.379113064  0.454220269  0.375000000
     0.888759627  0.944573706  0.375000000
     0.727529772  0.445525149  0.375000000
     0.222225014  0.611108320  0.875000000
     0.055553557  0.111111514  0.875000000
     0.555555037  0.611110073  0.875000000
     0.388893336  0.111116742  0.875000000
     0.888883306  0.611108320  0.875000000
     0.055723263  0.611446526  0.375000000
     0.722222593  0.111110740  0.875000000
     0.217995376  0.105803561  0.375000000
     0.387808185  0.615337957  0.375000000
     0.727529772  0.615337957  0.375000000
     0.555856435  0.110487505  0.375000000
     0.388893336  0.611109928  0.875000000
     0.888556354  0.110944844  0.375000000
     0.222226231  0.777779782  0.875000000
     0.055553557  0.277775377  0.875000000
     0.388889664  0.277779329  0.875000000
     0.555557957  0.777779776  0.875000000
     0.888885519  0.777779834  0.875000000
     0.722221819  0.277775377  0.875000000
     0.055723263  0.777610070  0.375000000
     0.388628219  0.778961749  0.375000000
     0.221277752  0.277305543  0.375000000
     0.722845828  0.778702264  0.375000000
     0.556027791  0.277305543  0.375000000
     0.888759627  0.277519254  0.375000000
     0.055553499  0.444439018  0.875000000
     0.222225014  0.944450028  0.875000000
     0.555556830  0.944445082  0.875000000
     0.388889664  0.444443669  0.875000000
     0.888888252  0.944445082  0.875000000
     0.054371584  0.942999803  0.375000000
     0.722216592  0.444439997  0.875000000
     0.388628219  0.942999803  0.375000000
     0.217995376  0.445525149  0.375000000
     0.221293322  0.612040012  0.375000000
     0.575107205  0.454220269  0.375000000
     0.722388490  0.944776979  0.375000000
     0.890333530  0.444705115  0.375000000
     0.055553551  0.611107102  0.875000000
     0.222223405  0.111116742  0.875000000
     0.722216592  0.611109928  0.875000000
     0.555557957  0.111111514  0.875000000
     0.888888147  0.111110740  0.875000000
     0.107771260  0.052591537  0.375000000
     0.619208312  0.563759003  0.375000000
     0.444820277  0.052591537  0.375000000
     0.945387429  0.555793858  0.375000000
     0.777777778  0.055555556  0.375000000
     0.111111111  0.722222222  0.875000000
     0.444457766  0.722258686  0.875000000
     0.277737245  0.222188926  0.875000000
     0.777800919  0.722258686  0.875000000
     0.611136729  0.222196605  0.875000000
     0.944419700  0.222206266  0.875000000
     0.277539475  0.722926904  0.375000000
     0.109128864  0.221231099  0.375000000
     0.444550691  0.214125022  0.375000000
     0.612102235  0.724204470  0.375000000
     0.945387429  0.722926904  0.375000000
     0.778019648  0.221662421  0.375000000
     0.111099879  0.888879134  0.875000000
     0.444458922  0.888896128  0.875000000
     0.277737245  0.388881653  0.875000000
     0.611144408  0.388881653  0.875000000
     0.777786566  0.888913634  0.875000000
     0.944437206  0.388874411  0.875000000
     0.107771260  0.388513056  0.375000000
     0.277539475  0.887945905  0.375000000
     0.611670912  0.889690560  0.375000000
     0.944234641  0.889098692  0.375000000
     0.780741796  0.388513056  0.375000000
     0.277762773  0.555570560  0.875000000
     0.111074648  0.055532414  0.875000000
     0.611144408  0.555596088  0.875000000
     0.444457766  0.055532414  0.875000000
     0.944454199  0.555554078  0.875000000
     0.110406429  0.555793858  0.375000000
     0.777777778  0.055555556  0.875000000
     0.276087049  0.052174099  0.375000000
     0.444550691  0.563759003  0.375000000
     0.781159235  0.557246284  0.375000000
     0.611670912  0.055313685  0.375000000
     0.444451681  0.555596088  0.875000000
     0.943642773  0.055313685  0.375000000
     0.277779255  0.722233454  0.875000000
     0.111059876  0.222196605  0.875000000
     0.444451681  0.222188926  0.875000000
     0.611136729  0.722273458  0.875000000
     0.944454199  0.722233454  0.875000000
     0.777786566  0.222206266  0.875000000
     0.111111111  0.722222222  0.375000000
     0.444820277  0.725562073  0.375000000
     0.269574331  0.214125022  0.375000000
     0.780741796  0.725562073  0.375000000
     0.612102235  0.221231099  0.375000000
     0.943642773  0.221662421  0.375000000
     0.111074648  0.388875567  0.875000000
     0.277779255  0.888879134  0.875000000
     0.611127068  0.888913634  0.875000000
     0.444444444  0.388888889  0.875000000
     0.944437206  0.888896128  0.875000000
     0.110406429  0.887945905  0.375000000
     0.777800919  0.388875567  0.875000000
     0.444864051  0.889098692  0.375000000
     0.269574331  0.388782642  0.375000000
     0.276087049  0.557246284  0.375000000
     0.619208312  0.388782642  0.375000000
     0.778019648  0.889690560  0.375000000
     0.944234641  0.388469283  0.375000000
     0.111099879  0.555554078  0.875000000
     0.277762773  0.055525546  0.875000000
     0.777807787  0.555570560  0.875000000
     0.611127068  0.055546767  0.875000000
     0.944419700  0.055546767  0.875000000
     0.055466376  0.111033716  0.124877341
     0.555636131  0.611272262  0.124731262
     0.388825284  0.110919679  0.124844717
     0.889008512  0.611170923  0.124898048
     0.722235236  0.111098097  0.124913050
     0.055571875  0.777761458  0.625089113
     0.388851511  0.777817004  0.625107011
     0.222061071  0.277697202  0.625268738
     0.722299617  0.777866957  0.625122659
     0.555636131  0.277697202  0.625268738
     0.888891504  0.277783008  0.625094977
     0.222189582  0.777761458  0.124910887
     0.055466376  0.277765994  0.124877341
     0.388775706  0.277551412  0.124322074
     0.555567340  0.777866957  0.124877341
     0.888965493  0.777817004  0.124892989
     0.722299617  0.277765994  0.124877341
     0.055516329  0.944367840  0.625107011
     0.388851511  0.944367840  0.625107011
     0.222094395  0.444508049  0.625155283
     0.555781921  0.444557627  0.625677926
     0.722235236  0.944470472  0.625086950
     0.888965493  0.444481822  0.625107011
     0.055516329  0.444481822  0.124892989
     0.222162411  0.944324821  0.124898048
     0.555550326  0.944441829  0.124905023
     0.388775706  0.444557627  0.124322074
     0.888891504  0.944441829  0.124905023
     0.722413654  0.444508049  0.124844717
     0.222162411  0.611170923  0.625101952
     0.055466376  0.111033716  0.625122659
     0.555636131  0.611272262  0.625268738
     0.388825284  0.110919679  0.625155283
     0.889008512  0.611170923  0.625101952
     0.055571875  0.611143751  0.124910887
     0.722235236  0.111098097  0.625086950
     0.222094395  0.110919679  0.124844717
     0.388825284  0.611238938  0.124844717
     0.722413654  0.611238938  0.124844717
     0.555567340  0.111033716  0.124877341
     0.388825284  0.611238938  0.625155283
     0.888862861  0.111098097  0.124913050
     0.222189582  0.777761458  0.625089113
     0.055466376  0.277765994  0.625122659
     0.388775706  0.277551412  0.625677926
     0.555567340  0.777866957  0.625122659
     0.888965493  0.777817004  0.625107011
     0.722299617  0.277765994  0.625122659
     0.055571875  0.777761458  0.124910887
     0.388851511  0.777817004  0.124892989
     0.222061071  0.277697202  0.124731262
     0.722299617  0.777866957  0.124877341
     0.555636131  0.277697202  0.124731262
     0.888891504  0.277783008  0.124905023
     0.055516329  0.444481822  0.625107011
     0.222162411  0.944324821  0.625101952
     0.555550326  0.944441829  0.625094977
     0.388775706  0.444557627  0.625677926
     0.888891504  0.944441829  0.625094977
     0.055516329  0.944367840  0.124892989
     0.722413654  0.444508049  0.625155283
     0.388851511  0.944367840  0.124892989
     0.222094395  0.444508049  0.124844717
     0.222162411  0.611170923  0.124898048
     0.555781921  0.444557627  0.124322074
     0.722235236  0.944470472  0.124913050
     0.888965493  0.444481822  0.124892989
     0.055571875  0.611143751  0.625089113
     0.222094395  0.110919679  0.625155283
     0.722413654  0.611238938  0.625155283
     0.555567340  0.111033716  0.625122659
     0.888862861  0.111098097  0.625086950

  ion indices of the primitive-cell ions
   primitive index   ion index
                 1           1
                 2           2
                 3           3
                 4           4
                 5           5
                 6           6
                 7           7
                 8           8
                 9           9
                10          10
                11          11
                12          12
                13          13
                14          14
                15          15
                16          16
                17          17
                18          18
                19          19
                20          20
                21          21
                22          22
                23          23
                24          24
                25          25
                26          26
                27          27
                28          28
                29          29
                30          30
                31          31
                32          32
                33          33
                34          34
                35          35
                36          36
                37          37
                38          38
                39          39
                40          40
                41          41
                42          42
                43          43
                44          44
                45          45
                46          46
                47          47
                48          48
                49          49
                50          50
                51          51
                52          52
                53          53
                54          54
                55          55
                56          56
                57          57
                58          58
                59          59
                60          60
                61          61
                62          62
                63          63
                64          64
                65          65
                66          66
                67          67
                68          68
                69          69
                70          70
                71          71
                72          72
                73          73
                74          74
                75          75
                76          76
                77          77
                78          78
                79          79
                80          80
                81          81
                82          82
                83          83
                84          84
                85          85
                86          86
                87          87
                88          88
                89          89
                90          90
                91          91
                92          92
                93          93
                94          94
                95          95
                96          96
                97          97
                98          98
                99          99
               100         100
               101         101
               102         102
               103         103
               104         104
               105         105
               106         106
               107         107
               108         108
               109         109
               110         110
               111         111
               112         112
               113         113
               114         114
               115         115
               116         116
               117         117
               118         118
               119         119
               120         120
               121         121
               122         122
               123         123
               124         124
               125         125
               126         126
               127         127
               128         128
               129         129
               130         130
               131         131
               132         132
               133         133
               134         134
               135         135
               136         136
               137         137
               138         138
               139         139
               140         140
               141         141
               142         142
               143         143
               144         144
               145         145
               146         146
               147         147
               148         148
               149         149
               150         150
               151         151
               152         152
               153         153
               154         154
               155         155
               156         156
               157         157
               158         158
               159         159
               160         160
               161         161
               162         162
               163         163
               164         164
               165         165
               166         166
               167         167
               168         168
               169         169
               170         170
               171         171
               172         172
               173         173
               174         174
               175         175
               176         176
               177         177
               178         178
               179         179
               180         180
               181         181
               182         182
               183         183
               184         184
               185         185
               186         186
               187         187
               188         188
               189         189
               190         190
               191         191
               192         192
               193         193
               194         194
               195         195
               196         196
               197         197
               198         198
               199         199
               200         200
               201         201
               202         202
               203         203
               204         204
               205         205
               206         206
               207         207
               208         208
               209         209
               210         210
               211         211
               212         212
               213         213
               214         214
               215         215
               216         216
               217         217
               218         218
               219         219
               220         220
               221         221
               222         222
               223         223
               224         224
               225         225
               226         226
               227         227
               228         228
               229         229
               230         230
               231         231
               232         232
               233         233
               234         234
               235         235
               236         236
               237         237
               238         238
               239         239
               240         240
               241         241
               242         242
               243         243
               244         244
               245         245
               246         246
               247         247
               248         248
               249         249
               250         250
               251         251
               252         252
               253         253
               254         254
               255         255
               256         256
               257         257
               258         258
               259         259
               260         260
               261         261
               262         262
               263         263
               264         264
               265         265
               266         266
               267         267
               268         268
               269         269
               270         270
               271         271
               272         272
               273         273
               274         274
               275         275
               276         276
               277         277
               278         278
               279         279
               280         280
               281         281
               282         282
               283         283
               284         284
               285         285
               286         286
               287         287
               288         288

----------------------------------------------------------------------------------------

 
 
 KPOINTS: KPOINTS file                            

Automatic generation of k-mesh.
 Grid dimensions read from file:
 generate k-points for:    1    1    1

 Generating k-lattice:

  Cartesian coordinates                     Fractional coordinates (reciprocal lattice)
     0.066950922  0.038654133 -0.000000000     1.000000000  0.000000000  0.000000000
     0.000000000  0.077308265 -0.000000000     0.000000000  1.000000000  0.000000000
     0.000000000  0.000000000  0.074955348     0.000000000  0.000000000  1.000000000

  Length of vectors
     0.077308265  0.077308265  0.074955348

  Shift w.r.t. Gamma in fractional coordinates (k-lattice)
     0.000000000  0.000000000  0.000000000

 
 Subroutine IBZKPT returns following result:
 ===========================================
 
 Found      1 irreducible k-points:
 
 Following reciprocal coordinates:
            Coordinates               Weight
  0.000000  0.000000  0.000000      1.000000
 
 Following cartesian coordinates:
            Coordinates               Weight
  0.000000  0.000000  0.000000      1.000000
 
 
 Subroutine IBZKPT_HF returns following result:
 ==============================================
 
 Found      1 k-points in 1st BZ
 the following      1 k-points will be used (e.g. in the exchange kernel)
 Following reciprocal coordinates:   # in IRBZ
  0.000000  0.000000  0.000000    1.00000000   1 t-inv F


--------------------------------------------------------------------------------------------------------




 Dimension of arrays:
   k-points           NKPTS =      1   k-points in BZ     NKDIM =      1   number of bands    NBANDS=    884
   number of dos      NEDOS =    301   number of ions     NIONS =    288
   non local maximal  LDIM  =      5   non local SUM 2l+1 LMDIM =     13
   total plane-waves  NPLWV = 564480
   max r-space proj   IRMAX =   1937   max aug-charges    IRDMAX=  72686
   dimension x,y,z NGX =    84 NGY =   84 NGZ =   80
   dimension x,y,z NGXF=   168 NGYF=  168 NGZF=  160
   support grid    NGXF=   336 NGYF=  336 NGZF=  320
   ions per type =               1 144 143
   NGX,Y,Z   is equivalent  to a cutoff of   9.35,  9.35,  9.97 a.u.
   NGXF,Y,Z  is equivalent  to a cutoff of  18.70, 18.70, 19.94 a.u.

 SYSTEM =  unknown system                          
 POSCAR =  Species order: X N B                    

 Startparameter for this run:
   NWRITE =      2    write-flag & timer
   PREC   = normal    normal or accurate (medium, high low for compatibility)
   ISTART =      0    job   : 0-new  1-cont  2-samecut
   ICHARG =      2    charge: 1-file 2-atom 10-const
   ISPIN  =      2    spin polarized calculation?
   LNONCOLLINEAR =      F non collinear calculations
   LSORBIT =      F    spin-orbit coupling
   INIWAV =      1    electr: 0-lowe 1-rand  2-diag
   LASPH  =      F    aspherical Exc in radial PAW
 Electronic Relaxation 1
   ENCUT  =  500.0 eV  36.75 Ry    6.06 a.u.  27.23 27.23 24.32*2*pi/ulx,y,z
   ENINI  =  500.0     initial cutoff
   ENAUG  =  627.1 eV  augmentation charge cutoff
   NELM   =     60;   NELMIN=  4; NELMDL= -5     # of ELM steps 
   EDIFF  = 0.1E-03   stopping-criterion for ELM
   LREAL  =      T    real-space projection
   NLSPLINE    = F    spline interpolate recip. space projectors
   LCOMPAT=      F    compatible to vasp.4.4
   GGA_COMPAT  = T    GGA compatible to vasp.4.4-vasp.4.6
   LMAXPAW     = -100 max onsite density
   LMAXMIX     =    2 max onsite mixed and CHGCAR
   VOSKOWN=      0    Vosko Wilk Nusair interpolation
   ROPT   =   -0.00050  -0.00050  -0.00050
 Ionic relaxation
   EDIFFG = -.1E-01   stopping-criterion for IOM
   NSW    =    900    number of steps for IOM
   NBLOCK =      1;   KBLOCK =    900    inner block; outer block 
   IBRION =      1    ionic relax: 0-MD 1-quasi-New 2-CG
   NFREE  =      0    steps in history (QN), initial steepest desc. (CG)
   ISIF   =      2    stress and relaxation
   IWAVPR =     11    prediction:  0-non 1-charg 2-wave 3-comb
   ISYM   =      3    0-nonsym 1-usesym 2-fastsym
   LCORR  =      T    Harris-Foulkes like correction to forces

   POTIM  = 0.3000    time-step for ionic-motion
   TEIN   =    0.0    initial temperature
   TEBEG  =    0.0;   TEEND  =   0.0 temperature during run
   SMASS  =  -3.00    Nose mass-parameter (am)
   estimated Nose-frequenzy (Omega)   =  0.10E-29 period in steps = 0.21E+47 mass=  -0.510E-26a.u.
   SCALEE = 1.0000    scale energy and forces
   NPACO  =    256;   APACO  = 10.0  distance and # of slots for P.C.
   PSTRESS=    0.0 pullay stress

  Mass of Ions in am
   POMASS =  74.92 14.00 10.81
  Ionic Valenz
   ZVAL   =   5.00  5.00  3.00
  Atomic Wigner-Seitz radii
   RWIGS  =  -1.00 -1.00 -1.00
  virtual crystal weights 
   VCA    =   1.00  1.00  1.00
   NELECT =    1153.0000    total number of electrons
   NUPDOWN=      -1.0000    fix difference up-down

 DOS related values:
   EMIN   =  10.00;   EMAX   =-10.00  energy-range for DOS
   EFERMI =   0.00;   METHOD = LEGACY      
   ISMEAR =    -2;   SIGMA  =   0.00  broadening in eV -4-tet -1-fermi 0-gaus

 Electronic relaxation 2 (details)
   IALGO  =     38    algorithm
   LDIAG  =      T    sub-space diagonalisation (order eigenvalues)
   LSUBROT=      F    optimize rotation matrix (better conditioning)
   TURBO    =      0    0=normal 1=particle mesh
   IRESTART =      0    0=no restart 2=restart with 2 vectors
   NREBOOT  =      0    no. of reboots
   NMIN     =      0    reboot dimension
   EREF     =   0.00    reference energy to select bands
   IMIX   =      1    mixing-type and parameters
     AMIX     =   0.40;   BMIX     =  1.00
     AMIX_MAG =   1.60;   BMIX_MAG =  1.00
     AMIN     =   0.10
     WC   =   100.;   INIMIX=   1;  MIXPRE=   1;  MAXMIX= -45

 Intra band minimization:
   WEIMIN = 0.0010     energy-eigenvalue tresh-hold
   EBREAK =  0.28E-07  absolut break condition
   DEPER  =   0.30     relativ break condition  

   TIME   =   0.40     timestep for ELM

  volume/ion in A,a.u.               =       8.95        60.40
  Fermi-wavevector in a.u.,A,eV,Ry     =   1.252025  2.365984 21.328035  1.567566
  Thomas-Fermi vector in A             =   2.385945
 
 Write flags
   LWAVE        =      T    write WAVECAR
   LDOWNSAMPLE  =      F    k-point downsampling of WAVECAR
   LCHARG       =      T    write CHGCAR
   LVTOT        =      F    write LOCPOT, total local potential
   LVHAR        =      F    write LOCPOT, Hartree potential only
   LELF         =      F    write electronic localiz. function (ELF)
   LORBIT       =     11    0 simple, 1 ext, 2 COOP (PROOUT), +10 PAW based schemes


 Dipole corrections
   LMONO  =      F    monopole corrections only (constant potential shift)
   LDIPOL =      F    correct potential (dipole corrections)
   IDIPOL =      0    1-x, 2-y, 3-z, 4-all directions 
   EPSILON=  1.0000000 bulk dielectric constant

 Exchange correlation treatment:
   GGA     =    PE    GGA type
   LEXCH   =     8    internal setting for exchange type
   LIBXC   =     F    Libxc                    
   VOSKOWN =     0    Vosko Wilk Nusair interpolation
   EXXOEP  =     0    0=HF, 1=EXX-LHF (local Hartree Fock) 2=EXX OEP
   LHFCALC =     T    Hartree Fock is set to
   LSYMGRAD=     F    symmetrize gradient (conserves proper symmetry)
   PRECFOCK=fast      Normal, Fast or Accurate (Low or Medium for compatibility)
   LRHFCALC=     F    long range Hartree Fock
   LRSCOR  =     F    long range correlation only (use DFT for short range part)
   LTHOMAS =     F    Thomas Fermi screening in HF
   LMODELHF=     F    short range full HF, long range fraction AEXX
   FOCKCORR=     1    mode to apply convergence corrections
   LFOCKACE=     T    use Adeptively-Compressed-Exchange operator
   ENCUT4O =  -1.0   cutoff for four orbital integrals eV
   LMAXFOCK=     4    L truncation for augmentation on plane wave grid
   LMAXFOCKAE=  -1    L truncation for all-electron charge restoration on plane wave grid
   NMAXFOCKAE=   1    number of basis functions for all-electron charge restoration
   LFOCKAEDFT=     F  apply the AE augmentation even for DFT
   NKREDX  =     1    reduce k-point grid by
   NKREDY  =     1    reduce k-point grid by
   NKREDZ  =     1    reduce k-point grid by
   SHIFTRED=     F    shift reduced grid of Gamma
   HFKIDENT=     F    idential grid for each k-point
   ODDONLY =     F    use only odd q-grid points
   EVENONLY=     F    use only even q-grid points
   HFALPHA =   -1.0000 decay constant for conv. correction
   MCALPHA =    0.0000 extent of test-charge in conv. correction in multipole expansion
   AEXX    =    0.3200 exact exchange contribution
   HFSCREEN=    0.2000 screening length (either q_TF or 0.3 A-1)
   HFSCREENC=   0.2000 screening length for correlation (either q_TF or 0.3 A-1)
   HFRCUT  =    0.0000 spherical cutoff for potential kernel
   ALDAX   =    0.6800 LDA exchange part
   AGGAX   =    0.6800 GGA exchange part
   ALDAC   =    1.0000 LDA correlation
   AGGAC   =    1.0000 GGA correlation
   ENCUTFOCK=  -1.0 apply spherical cutoff to Coloumb kernel
   NBANDSGWLOW=     1    first orbital included in HF term
   NBLOCK_FOCK=    64    blocking factor in FOCK_ACC

 Linear response parameters
   LEPSILON=     F    determine dielectric tensor
   LRPA    =     F    only Hartree local field effects (RPA)
   LNABLA  =     F    use nabla operator in PAW spheres
   LVEL    =     F    velocity operator in full k-point grid
   CSHIFT  =0.1000    complex shift for real part using Kramers Kronig
   OMEGAMAX=  -1.0    maximum frequency
   DEG_THRESHOLD= 0.2000000E-02 threshold for treating states as degnerate
   RTIME   =   -0.100 relaxation time in fs
  (WPLASMAI=    0.000 imaginary part of plasma frequency in eV, 0.658/RTIME)
   DFIELD  = 0.0000000 0.0000000 0.0000000 field for delta impulse in time
 
  Optional k-point grid parameters
   LKPOINTS_OPT  =     F    use optional k-point grid
   KPOINTS_OPT_MODE=     1    mode for optional k-point grid
 
 Orbital magnetization related:
   ORBITALMAG=     F  switch on orbital magnetization
   LCHIMAG   =     F  perturbation theory with respect to B field
   DQ        =  0.001000  dq finite difference perturbation B field
   LLRAUG    =     F  two centre corrections for induced B field
   LBONE     =     F  B-component reconstruction in AE one-centre
   LVGVCALC  =     T  calculate vGv susceptibility
   LVGVAPPL  =     F  apply vGv susceptibility instead of pGv for G=0

 Random number generation:
   RANDOM_GENERATOR = DEFAULT
   PCG_SEED         = not used


--------------------------------------------------------------------------------------------------------


 quasi-Newton-method for relaxation of ions
 charge density and potential will be updated during run
 spin polarized calculation
 Variant of blocked Davidson
 Davidson routine will perform the subspace rotation
 perform sub-space diagonalisation
    after iterative eigenvector-optimisation
 Kerker-like  mixing scheme
 using additional bands          307
 WARNING: no broadening specified (might cause bad convergence)
 real space projection scheme for non local part
 use partial core corrections
 calculate Harris-corrections to forces 
   (improved forces if not selfconsistent)
 use gradient corrections 
 use of overlap-Matrix (Vanderbilt PP)
 partial occupancies read from INCAR or WAVECAR (fixed during run)


--------------------------------------------------------------------------------------------------------


  energy-cutoff  :      500.00
  volume of cell :     2577.60
      direct lattice vectors                 reciprocal lattice vectors
    14.936314146  0.000000000  0.000000000     0.066950922  0.038654133 -0.000000000
    -7.468157073 12.935227490 -0.000000000     0.000000000  0.077308265 -0.000000000
     0.000000000  0.000000000 13.341276284     0.000000000  0.000000000  0.074955348

  length of vectors
    14.936314146 14.936314146 13.341276284     0.077308265  0.077308265  0.074955348


 
 k-points in units of 2pi/SCALE and weight: KPOINTS file                            
   0.00000000  0.00000000  0.00000000       1.000
 
 k-points in reciprocal lattice and weights: KPOINTS file                            
   0.00000000  0.00000000  0.00000000       1.000
 
 position of ions in fractional coordinates (direct lattice) 
   0.44444444  0.38888889  0.37500000
   0.11110286  0.05553836  0.12514565
   0.61112086  0.55556511  0.12528525
   0.44443550  0.05553836  0.12514565
   0.94445593  0.55556416  0.12511583
   0.77777778  0.05555556  0.12508662
   0.11111111  0.72222222  0.62489613
   0.44443550  0.72223047  0.62485435
   0.27776822  0.22221247  0.62471475
   0.77779498  0.72223047  0.62485435
   0.61111341  0.22221993  0.62483579
   0.94444549  0.22222848  0.62490881
   0.27776917  0.72222510  0.12511583
   0.11110652  0.22221993  0.12516421
   0.44444426  0.22221247  0.12528525
   0.61111341  0.72222682  0.12516421
   0.94445593  0.72222510  0.12511583
   0.77778299  0.22222848  0.12509119
   0.11110824  0.88887741  0.62488417
   0.44443486  0.88888410  0.62490672
   0.27776822  0.38888908  0.62471475
   0.61112086  0.38888908  0.62471475
   0.77778299  0.88888784  0.62490881
   0.94444923  0.38889847  0.62490672
   0.11110286  0.38889784  0.12514565
   0.27776917  0.88887741  0.12511583
   0.61110485  0.88888784  0.12509119
   0.44444444  0.38888889  0.12506386
   0.94444923  0.88888410  0.12509328
   0.77779498  0.38889784  0.12514565
   0.27776904  0.55556429  0.62479618
   0.11110286  0.05553836  0.62485435
   0.61112086  0.55556511  0.62471475
   0.44443550  0.05553836  0.62485435
   0.94445593  0.55556416  0.62488417
   0.11110824  0.55556416  0.12511583
   0.77777778  0.05555556  0.62491338
   0.27776904  0.05553808  0.12520382
   0.44444426  0.55556511  0.12528525
   0.77779525  0.55556429  0.12520382
   0.61110485  0.05555034  0.12509119
   0.44444426  0.55556511  0.62471475
   0.94444549  0.05555034  0.12509119
   0.27776917  0.72222510  0.62488417
   0.11110652  0.22221993  0.62483579
   0.44444426  0.22221247  0.62471475
   0.61111341  0.72222682  0.62483579
   0.94445593  0.72222510  0.62488417
   0.77778299  0.22222848  0.62490881
   0.11111111  0.72222222  0.12510387
   0.44443550  0.72223047  0.12514565
   0.27776822  0.22221247  0.12528525
   0.77779498  0.72223047  0.12514565
   0.61111341  0.22221993  0.12516421
   0.94444549  0.22222848  0.12509119
   0.11110286  0.38889784  0.62485435
   0.27776917  0.88887741  0.62488417
   0.61110485  0.88888784  0.62490881
   0.44444444  0.38888889  0.62493614
   0.94444923  0.88888410  0.62490672
   0.11110824  0.88887741  0.12511583
   0.77779498  0.38889784  0.62485435
   0.44443486  0.88888410  0.12509328
   0.27776822  0.38888908  0.12528525
   0.27776904  0.55556429  0.12520382
   0.61112086  0.38888908  0.12528525
   0.77778299  0.88888784  0.12509119
   0.94444923  0.38889847  0.12509328
   0.11110824  0.55556416  0.62488417
   0.27776904  0.05553808  0.62479618
   0.77779525  0.55556429  0.62479618
   0.61110485  0.05555034  0.62490881
   0.94444549  0.05555034  0.62490881
   0.05463107  0.11048750  0.37500000
   0.55602779  0.61205558  0.37500000
   0.38780818  0.10580356  0.37500000
   0.89074669  0.61204001  0.37500000
   0.72238849  0.11094484  0.37500000
   0.05555355  0.77777978  0.87500000
   0.38889432  0.77777983  0.87500000
   0.22222326  0.27777830  0.87500000
   0.72222182  0.77777978  0.87500000
   0.55555504  0.27777830  0.87500000
   0.88888825  0.27777650  0.87500000
   0.22188681  0.77761007  0.37500000
   0.05463107  0.27747690  0.37500000
   0.37911306  0.25822613  0.37500000
   0.55585644  0.77870226  0.37500000
   0.89033353  0.77896175  0.37500000
   0.72284583  0.27747690  0.37500000
   0.05555350  0.94444781  0.87500000
   0.38889432  0.94444781  0.87500000
   0.22222341  0.44444000  0.87500000
   0.55555400  0.44444367  0.87500000
   0.72222259  0.94444519  0.87500000
   0.88888552  0.44443902  0.87500000
   0.05437158  0.44470511  0.37500000
   0.22129332  0.94258664  0.37500000
   0.55581408  0.94457371  0.37500000
   0.37911306  0.45422027  0.37500000
   0.88875963  0.94457371  0.37500000
   0.72752977  0.44552515  0.37500000
   0.22222501  0.61110832  0.87500000
   0.05555356  0.11111151  0.87500000
   0.55555504  0.61111007  0.87500000
   0.38889334  0.11111674  0.87500000
   0.88888331  0.61110832  0.87500000
   0.05572326  0.61144653  0.37500000
   0.72222259  0.11111074  0.87500000
   0.21799538  0.10580356  0.37500000
   0.38780818  0.61533796  0.37500000
   0.72752977  0.61533796  0.37500000
   0.55585644  0.11048750  0.37500000
   0.38889334  0.61110993  0.87500000
   0.88855635  0.11094484  0.37500000
   0.22222623  0.77777978  0.87500000
   0.05555356  0.27777538  0.87500000
   0.38888966  0.27777933  0.87500000
   0.55555796  0.77777978  0.87500000
   0.88888552  0.77777983  0.87500000
   0.72222182  0.27777538  0.87500000
   0.05572326  0.77761007  0.37500000
   0.38862822  0.77896175  0.37500000
   0.22127775  0.27730554  0.37500000
   0.72284583  0.77870226  0.37500000
   0.55602779  0.27730554  0.37500000
   0.88875963  0.27751925  0.37500000
   0.05555350  0.44443902  0.87500000
   0.22222501  0.94445003  0.87500000
   0.55555683  0.94444508  0.87500000
   0.38888966  0.44444367  0.87500000
   0.88888825  0.94444508  0.87500000
   0.05437158  0.94299980  0.37500000
   0.72221659  0.44444000  0.87500000
   0.38862822  0.94299980  0.37500000
   0.21799538  0.44552515  0.37500000
   0.22129332  0.61204001  0.37500000
   0.57510720  0.45422027  0.37500000
   0.72238849  0.94477698  0.37500000
   0.89033353  0.44470511  0.37500000
   0.05555355  0.61110710  0.87500000
   0.22222341  0.11111674  0.87500000
   0.72221659  0.61110993  0.87500000
   0.55555796  0.11111151  0.87500000
   0.88888815  0.11111074  0.87500000
   0.10777126  0.05259154  0.37500000
   0.61920831  0.56375900  0.37500000
   0.44482028  0.05259154  0.37500000
   0.94538743  0.55579386  0.37500000
   0.77777778  0.05555556  0.37500000
   0.11111111  0.72222222  0.87500000
   0.44445777  0.72225869  0.87500000
   0.27773724  0.22218893  0.87500000
   0.77780092  0.72225869  0.87500000
   0.61113673  0.22219660  0.87500000
   0.94441970  0.22220627  0.87500000
   0.27753948  0.72292690  0.37500000
   0.10912886  0.22123110  0.37500000
   0.44455069  0.21412502  0.37500000
   0.61210223  0.72420447  0.37500000
   0.94538743  0.72292690  0.37500000
   0.77801965  0.22166242  0.37500000
   0.11109988  0.88887913  0.87500000
   0.44445892  0.88889613  0.87500000
   0.27773724  0.38888165  0.87500000
   0.61114441  0.38888165  0.87500000
   0.77778657  0.88891363  0.87500000
   0.94443721  0.38887441  0.87500000
   0.10777126  0.38851306  0.37500000
   0.27753948  0.88794590  0.37500000
   0.61167091  0.88969056  0.37500000
   0.94423464  0.88909869  0.37500000
   0.78074180  0.38851306  0.37500000
   0.27776277  0.55557056  0.87500000
   0.11107465  0.05553241  0.87500000
   0.61114441  0.55559609  0.87500000
   0.44445777  0.05553241  0.87500000
   0.94445420  0.55555408  0.87500000
   0.11040643  0.55579386  0.37500000
   0.77777778  0.05555556  0.87500000
   0.27608705  0.05217410  0.37500000
   0.44455069  0.56375900  0.37500000
   0.78115923  0.55724628  0.37500000
   0.61167091  0.05531369  0.37500000
   0.44445168  0.55559609  0.87500000
   0.94364277  0.05531369  0.37500000
   0.27777926  0.72223345  0.87500000
   0.11105988  0.22219660  0.87500000
   0.44445168  0.22218893  0.87500000
   0.61113673  0.72227346  0.87500000
   0.94445420  0.72223345  0.87500000
   0.77778657  0.22220627  0.87500000
[...]
  144        1.235   2.827   0.000   4.062
  145        1.235   2.827   0.000   4.062
  146        0.771   1.464   0.000   2.235
  147        0.765   1.463   0.000   2.228
  148        0.771   1.464   0.000   2.235
  149        0.764   1.441   0.000   2.205
  150        0.764   1.444   0.000   2.208
  151        0.760   1.430   0.000   2.190
  152        0.760   1.431   0.000   2.190
  153        0.760   1.431   0.000   2.191
  154        0.760   1.431   0.000   2.190
  155        0.760   1.431   0.000   2.190
  156        0.760   1.430   0.000   2.190
  157        0.764   1.441   0.000   2.205
  158        0.757   1.425   0.000   2.182
  159        0.765   1.463   0.000   2.228
  160        0.757   1.425   0.000   2.182
  161        0.764   1.441   0.000   2.205
  162        0.764   1.442   0.000   2.206
  163        0.760   1.430   0.000   2.190
  164        0.760   1.430   0.000   2.190
  165        0.760   1.431   0.000   2.191
  166        0.760   1.431   0.000   2.191
  167        0.760   1.430   0.000   2.190
  168        0.760   1.430   0.000   2.190
  169        0.771   1.464   0.000   2.235
  170        0.764   1.441   0.000   2.205
  171        0.764   1.442   0.000   2.206
  172        0.769   1.459   0.000   2.229
  173        0.771   1.464   0.000   2.235
  174        0.760   1.431   0.000   2.190
  175        0.760   1.431   0.000   2.190
  176        0.760   1.431   0.000   2.191
  177        0.760   1.431   0.000   2.190
  178        0.760   1.430   0.000   2.190
  179        0.764   1.441   0.000   2.205
  180        0.760   1.430   0.000   2.190
  181        0.759   1.427   0.000   2.186
  182        0.765   1.463   0.000   2.228
  183        0.759   1.427   0.000   2.186
  184        0.764   1.442   0.000   2.206
  185        0.760   1.431   0.000   2.191
  186        0.764   1.442   0.000   2.206
  187        0.760   1.430   0.000   2.190
  188        0.760   1.431   0.000   2.190
  189        0.760   1.431   0.000   2.191
  190        0.760   1.431   0.000   2.190
  191        0.760   1.430   0.000   2.190
  192        0.760   1.430   0.000   2.190
  193        0.764   1.442   0.000   2.206
  194        0.771   1.464   0.000   2.235
  195        0.765   1.463   0.000   2.228
  196        0.771   1.464   0.000   2.235
  197        0.757   1.425   0.000   2.182
  198        0.764   1.442   0.000   2.206
  199        0.760   1.431   0.000   2.190
  200        0.760   1.430   0.000   2.190
  201        0.760   1.430   0.000   2.190
  202        0.760   1.431   0.000   2.191
  203        0.760   1.430   0.000   2.190
  204        0.764   1.441   0.000   2.205
  205        0.760   1.431   0.000   2.190
  206        0.769   1.459   0.000   2.229
  207        0.765   1.463   0.000   2.228
  208        0.759   1.427   0.000   2.186
  209        0.765   1.463   0.000   2.228
  210        0.764   1.442   0.000   2.206
  211        0.769   1.459   0.000   2.229
  212        0.760   1.430   0.000   2.190
  213        0.760   1.431   0.000   2.190
  214        0.760   1.431   0.000   2.190
  215        0.760   1.430   0.000   2.190
  216        0.760   1.430   0.000   2.190
  217        0.760   1.430   0.000   2.190
  218        0.760   1.431   0.000   2.191
  219        0.760   1.431   0.000   2.190
  220        0.760   1.431   0.000   2.190
  221        0.760   1.430   0.000   2.189
  222        0.760   1.431   0.000   2.190
  223        0.760   1.430   0.000   2.190
  224        0.760   1.431   0.000   2.191
  225        0.760   1.430   0.000   2.190
  226        0.760   1.431   0.000   2.191
  227        0.760   1.430   0.000   2.190
  228        0.760   1.431   0.000   2.190
  229        0.760   1.430   0.000   2.190
  230        0.760   1.432   0.000   2.192
  231        0.760   1.430   0.000   2.190
  232        0.760   1.430   0.000   2.190
  233        0.760   1.430   0.000   2.190
  234        0.760   1.430   0.000   2.190
  235        0.760   1.430   0.000   2.190
  236        0.760   1.431   0.000   2.190
  237        0.760   1.432   0.000   2.192
  238        0.760   1.430   0.000   2.189
  239        0.760   1.430   0.000   2.190
  240        0.760   1.430   0.000   2.190
  241        0.760   1.431   0.000   2.190
  242        0.760   1.430   0.000   2.190
  243        0.760   1.432   0.000   2.192
  244        0.760   1.430   0.000   2.190
  245        0.760   1.431   0.000   2.190
  246        0.760   1.431   0.000   2.190
  247        0.760   1.430   0.000   2.190
  248        0.760   1.431   0.000   2.191
  249        0.760   1.431   0.000   2.190
  250        0.760   1.431   0.000   2.190
  251        0.760   1.431   0.000   2.190
  252        0.760   1.430   0.000   2.189
  253        0.760   1.431   0.000   2.190
  254        0.760   1.431   0.000   2.190
  255        0.760   1.431   0.000   2.190
  256        0.760   1.430   0.000   2.190
  257        0.760   1.431   0.000   2.190
  258        0.760   1.430   0.000   2.189
  259        0.760   1.431   0.000   2.190
  260        0.760   1.430   0.000   2.190
  261        0.760   1.432   0.000   2.192
  262        0.760   1.430   0.000   2.190
  263        0.760   1.430   0.000   2.190
  264        0.760   1.430   0.000   2.190
  265        0.760   1.431   0.000   2.190
  266        0.760   1.430   0.000   2.190
  267        0.760   1.431   0.000   2.191
  268        0.760   1.430   0.000   2.190
  269        0.760   1.431   0.000   2.191
  270        0.760   1.430   0.000   2.190
  271        0.760   1.430   0.000   2.190
  272        0.760   1.431   0.000   2.190
  273        0.760   1.430   0.000   2.190
  274        0.760   1.432   0.000   2.192
  275        0.760   1.430   0.000   2.190
  276        0.760   1.430   0.000   2.190
  277        0.760   1.431   0.000   2.190
  278        0.760   1.430   0.000   2.190
  279        0.760   1.431   0.000   2.190
  280        0.760   1.431   0.000   2.190
  281        0.760   1.432   0.000   2.192
  282        0.760   1.430   0.000   2.189
  283        0.760   1.430   0.000   2.190
  284        0.760   1.431   0.000   2.190
  285        0.760   1.431   0.000   2.190
  286        0.760   1.431   0.000   2.190
  287        0.760   1.430   0.000   2.190
  288        0.760   1.430   0.000   2.189
--------------------------------------------------
tot        287.997 614.113   0.324 902.433



 magnetization (x)

# of ion       s       p       d       tot
------------------------------------------
    1       -0.096  -0.119  -0.061  -0.275
    2       -0.000   0.000   0.000   0.000
    3       -0.000   0.000   0.000   0.000
    4       -0.000   0.000   0.000   0.000
    5        0.000   0.000   0.000   0.000
    6       -0.000   0.000   0.000   0.000
    7        0.000   0.000   0.000   0.000
    8       -0.000   0.000   0.000   0.000
    9       -0.000   0.000   0.000   0.000
   10       -0.000   0.000   0.000   0.000
   11       -0.000   0.000   0.000   0.000
   12        0.000   0.000   0.000   0.000
   13        0.000   0.000   0.000   0.000
   14       -0.000   0.000   0.000   0.000
   15       -0.000   0.000   0.000   0.000
   16       -0.000   0.000   0.000   0.000
   17        0.000   0.000   0.000   0.000
   18        0.000   0.000   0.000   0.000
   19        0.000   0.000   0.000   0.000
   20        0.000   0.000   0.000   0.000
   21       -0.000   0.000   0.000   0.000
   22       -0.000   0.000   0.000   0.000
   23        0.000   0.000   0.000   0.000
   24        0.000   0.000   0.000   0.000
   25       -0.000   0.000   0.000   0.000
   26        0.000   0.000   0.000   0.000
   27        0.000   0.000   0.000   0.000
   28       -0.002  -0.002   0.000  -0.003
   29        0.000   0.000   0.000   0.000
   30       -0.000   0.000   0.000   0.000
   31       -0.000   0.000   0.000   0.000
   32       -0.000   0.000   0.000   0.000
   33       -0.000   0.000   0.000   0.000
   34       -0.000   0.000   0.000   0.000
   35        0.000   0.000   0.000   0.000
   36        0.000   0.000   0.000   0.000
   37       -0.000   0.000   0.000   0.000
   38       -0.000   0.000   0.000   0.000
   39       -0.000   0.000   0.000   0.000
   40       -0.000   0.000   0.000   0.000
   41        0.000   0.000   0.000   0.000
   42       -0.000   0.000   0.000   0.000
   43        0.000   0.000   0.000   0.000
   44        0.000   0.000   0.000   0.000
   45       -0.000   0.000   0.000   0.000
   46       -0.000   0.000   0.000   0.000
   47       -0.000   0.000   0.000   0.000
   48        0.000   0.000   0.000   0.000
   49        0.000   0.000   0.000   0.000
   50        0.000   0.000   0.000   0.000
   51       -0.000   0.000   0.000   0.000
   52       -0.000   0.000   0.000   0.000
   53       -0.000   0.000   0.000   0.000
   54       -0.000   0.000   0.000   0.000
   55        0.000   0.000   0.000   0.000
   56       -0.000   0.000   0.000   0.000
   57        0.000   0.000   0.000   0.000
   58        0.000   0.000   0.000   0.000
   59       -0.002  -0.002   0.000  -0.003
   60        0.000   0.000   0.000   0.000
   61        0.000   0.000   0.000   0.000
   62       -0.000   0.000   0.000   0.000
   63        0.000   0.000   0.000   0.000
   64       -0.000   0.000   0.000   0.000
   65       -0.000   0.000   0.000   0.000
   66       -0.000   0.000   0.000   0.000
   67        0.000   0.000   0.000   0.000
   68        0.000   0.000   0.000   0.000
   69        0.000   0.000   0.000   0.000
   70       -0.000   0.000   0.000   0.000
   71       -0.000   0.000   0.000   0.000
   72        0.000   0.000   0.000   0.000
   73        0.000   0.000   0.000   0.000
   74        0.000   0.000   0.000   0.000
   75        0.000   0.002   0.000   0.002
   76       -0.001   0.000   0.000  -0.000
   77        0.000   0.000   0.000   0.001
   78        0.000   0.000   0.000   0.000
   79       -0.000  -0.000   0.000  -0.000
   80       -0.000   0.000   0.000  -0.000
   81       -0.000   0.000   0.000   0.000
   82       -0.000   0.000   0.000   0.000
   83       -0.000   0.000   0.000   0.000
   84       -0.000   0.000   0.000   0.000
   85        0.000   0.000   0.000   0.000
   86        0.000   0.000   0.000   0.000
   87       -0.022  -0.079   0.000  -0.101
   88        0.000   0.000   0.000   0.000
   89       -0.000   0.000   0.000   0.000
   90        0.000   0.000   0.000   0.000
   91       -0.000   0.000   0.000  -0.000
   92       -0.000   0.000   0.000  -0.000
   93       -0.000  -0.000   0.000  -0.000
   94       -0.000  -0.000   0.000  -0.000
   95       -0.000   0.000   0.000  -0.000
   96       -0.000   0.000   0.000  -0.000
   97       -0.000   0.000   0.000   0.000
   98        0.000   0.000   0.000   0.001
   99        0.000   0.000   0.000   0.000
  100       -0.022  -0.079   0.000  -0.101
  101        0.000   0.000   0.000   0.000
  102       -0.001   0.000   0.000  -0.000
  103       -0.000   0.000   0.000   0.000
  104       -0.000   0.000   0.000   0.000
  105       -0.000   0.000   0.000   0.000
  106       -0.000  -0.000   0.000  -0.000
  107       -0.000   0.000   0.000   0.000
  108        0.000   0.000   0.000   0.000
  109       -0.000   0.000   0.000  -0.000
  110       -0.001   0.000   0.000  -0.000
  111       -0.001   0.000   0.000  -0.000
  112       -0.001   0.000   0.000  -0.000
  113        0.000   0.000   0.000   0.000
  114       -0.000  -0.000   0.000  -0.000
  115        0.000   0.000   0.000   0.000
  116       -0.000  -0.000   0.000  -0.000
  117       -0.000   0.000   0.000   0.000
  118       -0.000  -0.000   0.000  -0.000
  119       -0.000   0.000   0.000   0.000
  120       -0.000   0.000   0.000  -0.000
  121       -0.000   0.000   0.000   0.000
  122        0.000   0.000   0.000   0.000
  123       -0.000   0.000   0.000   0.000
  124        0.000   0.002   0.000   0.002
  125        0.000   0.000   0.000   0.000
  126        0.000   0.002   0.000   0.002
  127        0.000   0.000   0.000   0.000
  128       -0.000   0.000   0.000  -0.000
  129       -0.000   0.000   0.000   0.000
  130       -0.000   0.000   0.000   0.000
  131       -0.000  -0.000   0.000  -0.000
  132       -0.000   0.000   0.000   0.000
  133       -0.000   0.000   0.000   0.000
  134       -0.000  -0.000   0.000  -0.000
  135       -0.000   0.000   0.000   0.000
  136       -0.001   0.000   0.000  -0.000
  137        0.000   0.000   0.000   0.001
  138       -0.022  -0.079   0.000  -0.101
  139        0.000   0.000   0.000   0.000
  140       -0.000   0.000   0.000   0.000
  141       -0.000  -0.000   0.000  -0.000
  142       -0.000  -0.000   0.000  -0.000
  143       -0.000  -0.000   0.000  -0.000
  144       -0.000   0.000   0.000   0.000
  145       -0.000   0.000   0.000  -0.000
  146       -0.000  -0.001   0.000  -0.002
  147        0.001  -0.003   0.000  -0.003
  148       -0.000  -0.001   0.000  -0.002
  149       -0.000  -0.000   0.000  -0.000
  150       -0.000  -0.000   0.000  -0.000
  151        0.000   0.000   0.000   0.000
  152       -0.000  -0.000   0.000  -0.000
  153        0.000  -0.000   0.000  -0.000
  154       -0.000  -0.000   0.000  -0.000
  155       -0.000  -0.000   0.000  -0.000
  156       -0.000  -0.000   0.000  -0.000
  157       -0.000  -0.000   0.000  -0.000
  158        0.000  -0.000   0.000  -0.000
  159        0.001  -0.003   0.000  -0.003
  160        0.000  -0.000   0.000  -0.000
  161       -0.000  -0.000   0.000  -0.000
  162       -0.000  -0.000   0.000  -0.000
  163       -0.000  -0.000   0.000  -0.000
  164       -0.000  -0.000   0.000  -0.000
  165        0.000  -0.000   0.000  -0.000
  166        0.000  -0.000   0.000  -0.000
  167       -0.000  -0.000   0.000  -0.000
  168       -0.000  -0.000   0.000  -0.000
  169       -0.000  -0.001   0.000  -0.002
  170       -0.000  -0.000   0.000  -0.000
  171       -0.000  -0.000   0.000  -0.000
  172       -0.000  -0.000   0.000  -0.000
  173       -0.000  -0.001   0.000  -0.002
  174       -0.000  -0.000   0.000  -0.000
  175       -0.000  -0.000   0.000  -0.000
  176        0.000  -0.000   0.000  -0.000
  177       -0.000  -0.000   0.000  -0.000
  178       -0.000  -0.000   0.000  -0.000
  179       -0.000  -0.000   0.000  -0.000
  180       -0.000  -0.000   0.000  -0.000
  181       -0.000  -0.001   0.000  -0.001
  182        0.001  -0.003   0.000  -0.003
  183       -0.000  -0.001   0.000  -0.001
  184       -0.000  -0.000   0.000  -0.000
  185        0.000  -0.000   0.000  -0.000
  186       -0.000  -0.000   0.000  -0.000
  187       -0.000  -0.000   0.000  -0.000
  188       -0.000  -0.000   0.000  -0.000
  189        0.000  -0.000   0.000  -0.000
  190       -0.000  -0.000   0.000  -0.000
  191       -0.000  -0.000   0.000  -0.000
  192       -0.000  -0.000   0.000  -0.000
  193       -0.000  -0.001   0.000  -0.001
  194       -0.000  -0.001   0.000  -0.002
  195        0.001  -0.003   0.000  -0.003
  196       -0.000  -0.001   0.000  -0.002
  197        0.000  -0.000   0.000  -0.000
  198       -0.000  -0.000   0.000  -0.000
  199       -0.000  -0.000   0.000  -0.000
  200       -0.000  -0.000   0.000  -0.000
  201       -0.000  -0.000   0.000  -0.000
  202        0.000   0.000   0.000   0.000
  203       -0.000  -0.000   0.000  -0.000
  204       -0.000  -0.000   0.000  -0.000
  205       -0.000  -0.000   0.000  -0.000
  206       -0.000  -0.000   0.000  -0.000
  207        0.001  -0.003   0.000  -0.003
  208       -0.000  -0.001   0.000  -0.001
  209        0.001  -0.003   0.000  -0.003
  210       -0.000  -0.000   0.000  -0.000
  211       -0.000  -0.000   0.000  -0.000
  212       -0.000  -0.000   0.000  -0.000
  213       -0.000  -0.000   0.000  -0.000
  214       -0.000  -0.000   0.000  -0.000
  215       -0.000  -0.000   0.000  -0.000
  216       -0.000  -0.000   0.000  -0.000
  217       -0.000  -0.000   0.000  -0.000
  218       -0.000  -0.000   0.000  -0.000
  219       -0.000  -0.000   0.000  -0.000
  220       -0.000  -0.000   0.000  -0.000
  221       -0.000  -0.000   0.000  -0.000
  222       -0.000  -0.000   0.000  -0.000
  223       -0.000  -0.000   0.000  -0.000
  224       -0.000  -0.000   0.000  -0.000
  225       -0.000  -0.000   0.000  -0.000
  226       -0.000  -0.000   0.000  -0.000
  227       -0.000  -0.000   0.000  -0.000
  228       -0.000  -0.000   0.000  -0.000
  229       -0.000  -0.000   0.000  -0.000
  230       -0.000  -0.000   0.000  -0.000
  231       -0.000  -0.000   0.000  -0.000
  232       -0.000  -0.000   0.000  -0.000
  233       -0.000  -0.000   0.000  -0.000
  234       -0.000  -0.000   0.000  -0.000
  235       -0.000  -0.000   0.000  -0.000
  236       -0.000  -0.000   0.000  -0.000
  237       -0.000  -0.000   0.000  -0.000
  238       -0.000  -0.000   0.000  -0.000
  239       -0.000  -0.000   0.000  -0.000
  240       -0.000  -0.000   0.000  -0.000
  241       -0.000  -0.000   0.000  -0.000
  242       -0.000  -0.000   0.000  -0.000
  243       -0.000  -0.000   0.000  -0.000
  244       -0.000  -0.000   0.000  -0.000
  245       -0.000  -0.000   0.000  -0.000
  246       -0.000  -0.000   0.000  -0.000
  247       -0.000  -0.000   0.000  -0.000
  248       -0.000  -0.000   0.000  -0.000
  249       -0.000  -0.000   0.000  -0.000
  250       -0.000  -0.000   0.000  -0.000
  251       -0.000  -0.000   0.000  -0.000
  252       -0.000  -0.000   0.000  -0.000
  253       -0.000  -0.000   0.000  -0.000
  254       -0.000  -0.000   0.000  -0.000
  255       -0.000  -0.000   0.000  -0.000
  256       -0.000  -0.000   0.000  -0.000
  257       -0.000  -0.000   0.000  -0.000
  258       -0.000  -0.000   0.000  -0.000
  259       -0.000  -0.000   0.000  -0.000
  260       -0.000  -0.000   0.000  -0.000
  261       -0.000  -0.000   0.000  -0.000
  262       -0.000  -0.000   0.000  -0.000
  263       -0.000  -0.000   0.000  -0.000
  264       -0.000  -0.000   0.000  -0.000
  265       -0.000  -0.000   0.000  -0.000
  266       -0.000  -0.000   0.000  -0.000
  267       -0.000  -0.000   0.000  -0.000
  268       -0.000  -0.000   0.000  -0.000
  269       -0.000  -0.000   0.000  -0.000
  270       -0.000  -0.000   0.000  -0.000
  271       -0.000  -0.000   0.000  -0.000
  272       -0.000  -0.000   0.000  -0.000
  273       -0.000  -0.000   0.000  -0.000
  274       -0.000  -0.000   0.000  -0.000
  275       -0.000  -0.000   0.000  -0.000
  276       -0.000  -0.000   0.000  -0.000
  277       -0.000  -0.000   0.000  -0.000
  278       -0.000  -0.000   0.000  -0.000
  279       -0.000  -0.000   0.000  -0.000
  280       -0.000  -0.000   0.000  -0.000
  281       -0.000  -0.000   0.000  -0.000
  282       -0.000  -0.000   0.000  -0.000
  283       -0.000  -0.000   0.000  -0.000
  284       -0.000  -0.000   0.000  -0.000
  285       -0.000  -0.000   0.000  -0.000
  286       -0.000  -0.000   0.000  -0.000
  287       -0.000  -0.000   0.000  -0.000
  288       -0.000  -0.000   0.000  -0.000
--------------------------------------------------
tot         -0.171  -0.382  -0.061  -0.613
 

 total amount of memory used by VASP MPI-rank0    61002. kBytes
=======================================================================

   base      :      30000. kBytes
   nonlr-proj:       2014. kBytes
   fftplans  :       2974. kBytes
   grid      :       4550. kBytes
   one-center:         97. kBytes
   HF        :        101. kBytes
   wavefun   :       1173. kBytes
   fock_wrk  :      20093. kBytes
 
  
  
 General timing and accounting informations for this job:
 ========================================================
  
                  Total CPU time used (sec):    18743.869
                            User time (sec):    18716.382
                          System time (sec):       27.486
                         Elapsed time (sec):    18743.239
  
                   Maximum memory used (kb):     1172136.
                   Average memory used (kb):          N/A
  
                          Minor page faults:        74772
                          Major page faults:            0
                 Voluntary context switches:       132937
