 vasp.6.2.1 16May21 (build Sep  7 2022 15:23:46) gamma-only                      
 executed on          ARA Cluster date 2022.11.17  13:42:33
 running on   36 total cores
 distrk:  each k-point on   36 cores,    1 groups
 distr:  one band on NCORE=   1 cores,   36 groups


--------------------------------------------------------------------------------------------------------


 INCAR:
   LREAL = Auto
   ISTART = 0
   ICHARG = 2
   LORBIT = 11
   ENCUT = 500
   EDIFF = 1E-4
   NELM = 60
   NELMIN = 4
   IBRION = 2
   NSW = 500
   ISIF = 2
   EDIFFG = -5E-2
   ISMEAR = 0
   SIGMA = 0.05
   ISPIN = 2
   MAGMOM = 49*-1 0 47*1 0
   GGA = PE
   LHFCALC = .TRUE.
   AEXX = 0.25
   HFSCREEN = 0.2
   ALGO = Damped
   TIME = 0.4
   PRECFOCK = Fast

 POTCAR:    PAW_PBE B 06Sep2000                   
 POTCAR:    PAW_PBE C 08Apr2002                   
 POTCAR:    PAW_PBE N 08Apr2002                   
 POTCAR:    PAW_PBE O 08Apr2002                   
 -----------------------------------------------------------------------------
|                                                                             |
|           W    W    AA    RRRRR   N    N  II  N    N   GGGG   !!!           |
|           W    W   A  A   R    R  NN   N  II  NN   N  G    G  !!!           |
|           W    W  A    A  R    R  N N  N  II  N N  N  G       !!!           |
|           W WW W  AAAAAA  RRRRR   N  N N  II  N  N N  G  GGG   !            |
|           WW  WW  A    A  R   R   N   NN  II  N   NN  G    G                |
|           W    W  A    A  R    R  N    N  II  N    N   GGGG   !!!           |
|                                                                             |
|     For optimal performance we recommend to set                             |
|       NCORE = 2 up to number-of-cores-per-socket                            |
|     NCORE specifies how many cores store one orbital (NPAR=cpu/NCORE).      |
|     This setting can greatly improve the performance of VASP for DFT.       |
|     The default, NCORE=1 might be grossly inefficient on modern             |
|     multi-core architectures or massively parallel machines. Do your        |
|     own testing! More info at https://www.vasp.at/wiki/index.php/NCORE      |
|     Unfortunately you need to use the default for GW and RPA                |
|     calculations (for HF NCORE is supported but not extensively tested      |
|     yet).                                                                   |
|                                                                             |
 -----------------------------------------------------------------------------

 POTCAR:    PAW_PBE B 06Sep2000                   
   SHA256 =  a32ced30f5ae56fd4d10b4325ff17eb3e4e38ee0f4288bc219fb012fddfa6e97 B/POTCAR              
   COPYR  = (c) Copyright 06Sep2000 Georg Kresse                                                    
   COPYR  = This file is part of the software VASP. Any use, copying, and all other rights are regul
   COPYR  = If you do not have a valid VASP license, you may not use, copy or distribute this file. 
   VRHFIN =B: s2p1                                                                                  
   LEXCH  = PE                                                                                      
   EATOM  =    71.1703 eV,    5.2309 Ry                                                             
                                                                                                    
   TITEL  = PAW_PBE B 06Sep2000                                                                     
   LULTRA =        F    use ultrasoft PP ?                                                          
   IUNSCR =        1    unscreen: 0-lin 1-nonlin 2-no                                               
   RPACOR =    1.200    partial core radius                                                         
   POMASS =   10.811; ZVAL   =    3.000    mass and valenz                                          
   RCORE  =    1.700    outmost cutoff radius                                                       
   RWIGS  =    1.710; RWIGS  =    0.905    wigner-seitz radius (au A)                               
   ENMAX  =  318.614; ENMIN  =  238.960 eV                                                          
   ICORE  =        2    local potential                                                             
   LCOR   =        T    correct aug charges                                                         
   LPAW   =        T    paw PP                                                                      
   EAUG   =  535.514                                                                                
   DEXC   =    0.000                                                                                
   RMAX   =    1.732    core radius for proj-oper                                                   
   RAUG   =    1.300    factor for augmentation sphere                                              
   RDEP   =    1.757    radius for radial grids                                                     
   RDEPT  =    1.436    core radius for aug-charge                                                  
                                                                                                    
   Atomic configuration                                                                             
    4 entries                                                                                       
     n  l   j            E        occ.                                                              
     1  0  0.50      -180.5896   2.0000                                                             
     2  0  0.50        -9.4431   2.0000                                                             
     2  1  0.50        -3.6068   1.0000                                                             
     3  2  1.50        -4.0817   0.0000                                                             
   Description                                                                                      
     l       E           TYP  RCUT    TYP  RCUT                                                     
     0     -9.4430752     23  1.500                                                                 
     0      0.8675899     23  1.500                                                                 
     1     -3.6067955     23  1.700                                                                 
     1      6.1086146     23  1.700                                                                 
     2     -4.0817478      7  1.700                                                                 
  local pseudopotential read in
  partial core-charges read in
  partial kinetic energy density read in
  atomic valenz-charges read in
  non local Contribution for L=           0  read in
    real space projection operators read in
  non local Contribution for L=           0  read in
    real space projection operators read in
  non local Contribution for L=           1  read in
    real space projection operators read in
  non local Contribution for L=           1  read in
    real space projection operators read in
    PAW grid and wavefunctions read in

   number of l-projection  operators is LMAX  =           4
   number of lm-projection operators is LMMAX =           8

 POTCAR:    PAW_PBE C 08Apr2002                   
   SHA256 =  253f7b50bb8d59471dbedb8285d89021f4a42ed1a2c5d38a03a736e69125dd95 C/POTCAR              
   COPYR  = (c) Copyright 08Apr2002 Georg Kresse                                                    
   COPYR  = This file is part of the software VASP. Any use, copying, and all other rights are regul
   COPYR  = If you do not have a valid VASP license, you may not use, copy or distribute this file. 
   VRHFIN =C: s2p2                                                                                  
   LEXCH  = PE                                                                                      
   EATOM  =   147.1560 eV,   10.8157 Ry                                                             
                                                                                                    
   TITEL  = PAW_PBE C 08Apr2002                                                                     
   LULTRA =        F    use ultrasoft PP ?                                                          
   IUNSCR =        1    unscreen: 0-lin 1-nonlin 2-no                                               
   RPACOR =    1.200    partial core radius                                                         
   POMASS =   12.011; ZVAL   =    4.000    mass and valenz                                          
   RCORE  =    1.500    outmost cutoff radius                                                       
   RWIGS  =    1.630; RWIGS  =    0.863    wigner-seitz radius (au A)                               
   ENMAX  =  400.000; ENMIN  =  300.000 eV                                                          
   ICORE  =        2    local potential                                                             
   LCOR   =        T    correct aug charges                                                         
   LPAW   =        T    paw PP                                                                      
   EAUG   =  644.873                                                                                
   DEXC   =    0.000                                                                                
   RMAX   =    1.529    core radius for proj-oper                                                   
   RAUG   =    1.300    factor for augmentation sphere                                              
   RDEP   =    1.501    radius for radial grids                                                     
   RDEPT  =    1.300    core radius for aug-charge                                                  
                                                                                                    
   Atomic configuration                                                                             
    4 entries                                                                                       
     n  l   j            E        occ.                                                              
     1  0  0.50      -273.3789   2.0000                                                             
     2  0  0.50       -13.7508   2.0000                                                             
     2  1  0.50        -5.2854   2.0000                                                             
     3  2  1.50        -5.4423   0.0000                                                             
   Description                                                                                      
     l       E           TYP  RCUT    TYP  RCUT                                                     
     0    -13.7508458     23  1.200                                                                 
     0     -8.2022199     23  1.200                                                                 
     1     -5.2854383     23  1.500                                                                 
     1     34.0145650     23  1.500                                                                 
     2     -5.4423304      7  1.500                                                                 
  local pseudopotential read in
  partial core-charges read in
  partial kinetic energy density read in
  atomic valenz-charges read in
  non local Contribution for L=           0  read in
    real space projection operators read in
  non local Contribution for L=           0  read in
    real space projection operators read in
  non local Contribution for L=           1  read in
    real space projection operators read in
  non local Contribution for L=           1  read in
    real space projection operators read in
    PAW grid and wavefunctions read in

   number of l-projection  operators is LMAX  =           4
   number of lm-projection operators is LMMAX =           8

 POTCAR:    PAW_PBE N 08Apr2002                   
   SHA256 =  e053789ff3a61a86a1b75d8a110fcc91f86041011e7b0817c7c99e4e8a6349d7 N/POTCAR              
   COPYR  = (c) Copyright 08Apr2002 Georg Kresse                                                    
   COPYR  = This file is part of the software VASP. Any use, copying, and all other rights are regul
   COPYR  = If you do not have a valid VASP license, you may not use, copy or distribute this file. 
   VRHFIN =N: s2p3                                                                                  
   LEXCH  = PE                                                                                      
   EATOM  =   264.5486 eV,   19.4438 Ry                                                             
                                                                                                    
   TITEL  = PAW_PBE N 08Apr2002                                                                     
   LULTRA =        F    use ultrasoft PP ?                                                          
   IUNSCR =        1    unscreen: 0-lin 1-nonlin 2-no                                               
   RPACOR =    1.200    partial core radius                                                         
   POMASS =   14.001; ZVAL   =    5.000    mass and valenz                                          
   RCORE  =    1.500    outmost cutoff radius                                                       
   RWIGS  =    1.400; RWIGS  =    0.741    wigner-seitz radius (au A)                               
   ENMAX  =  400.000; ENMIN  =  300.000 eV                                                          
   ICORE  =        2    local potential                                                             
   LCOR   =        T    correct aug charges                                                         
   LPAW   =        T    paw PP                                                                      
   EAUG   =  627.112                                                                                
   DEXC   =    0.000                                                                                
   RMAX   =    1.529    core radius for proj-oper                                                   
   RAUG   =    1.300    factor for augmentation sphere                                              
   RDEP   =    1.514    radius for radial grids                                                     
   RDEPT  =    1.338    core radius for aug-charge                                                  
                                                                                                    
   Atomic configuration                                                                             
    4 entries                                                                                       
     n  l   j            E        occ.                                                              
     1  0  0.50      -384.7179   2.0000                                                             
     2  0  0.50       -18.5828   2.0000                                                             
     2  1  0.50        -7.0898   3.0000                                                             
     3  2  1.50        -6.8029   0.0000                                                             
   Description                                                                                      
     l       E           TYP  RCUT    TYP  RCUT                                                     
     0    -18.5828119     23  1.200                                                                 
     0    -13.5018863     23  1.200                                                                 
     1     -7.0897853     23  1.500                                                                 
     1      9.5240782     23  1.500                                                                 
     2     -6.8029130      7  1.500                                                                 
  local pseudopotential read in
  partial core-charges read in
  partial kinetic energy density read in
  atomic valenz-charges read in
  non local Contribution for L=           0  read in
    real space projection operators read in
  non local Contribution for L=           0  read in
    real space projection operators read in
  non local Contribution for L=           1  read in
    real space projection operators read in
  non local Contribution for L=           1  read in
    real space projection operators read in
    PAW grid and wavefunctions read in

   number of l-projection  operators is LMAX  =           4
   number of lm-projection operators is LMMAX =           8

 POTCAR:    PAW_PBE O 08Apr2002                   
   SHA256 =  818f92134a0a090dccd8ba1447fa70422a3b330e708bb4f08108d8ae51209ddf O/POTCAR              
   COPYR  = (c) Copyright 08Apr2002 Georg Kresse                                                    
   COPYR  = This file is part of the software VASP. Any use, copying, and all other rights are regul
   COPYR  = If you do not have a valid VASP license, you may not use, copy or distribute this file. 
   VRHFIN =O: s2p4                                                                                  
   LEXCH  = PE                                                                                      
   EATOM  =   432.3788 eV,   31.7789 Ry                                                             
                                                                                                    
   TITEL  = PAW_PBE O 08Apr2002                                                                     
   LULTRA =        F    use ultrasoft PP ?                                                          
   IUNSCR =        1    unscreen: 0-lin 1-nonlin 2-no                                               
   RPACOR =    1.200    partial core radius                                                         
   POMASS =   16.000; ZVAL   =    6.000    mass and valenz                                          
   RCORE  =    1.520    outmost cutoff radius                                                       
   RWIGS  =    1.550; RWIGS  =    0.820    wigner-seitz radius (au A)                               
   ENMAX  =  400.000; ENMIN  =  300.000 eV                                                          
   ICORE  =        2    local potential                                                             
   LCOR   =        T    correct aug charges                                                         
   LPAW   =        T    paw PP                                                                      
   EAUG   =  605.392                                                                                
   DEXC   =    0.000                                                                                
   RMAX   =    1.553    core radius for proj-oper                                                   
   RAUG   =    1.300    factor for augmentation sphere                                              
   RDEP   =    1.550    radius for radial grids                                                     
   RDEPT  =    1.329    core radius for aug-charge                                                  
                                                                                                    
   Atomic configuration                                                                             
    4 entries                                                                                       
     n  l   j            E        occ.                                                              
     1  0  0.50      -514.6923   2.0000                                                             
     2  0  0.50       -23.9615   2.0000                                                             
     2  1  0.50        -9.0305   4.0000                                                             
     3  2  1.50        -9.5241   0.0000                                                             
   Description                                                                                      
     l       E           TYP  RCUT    TYP  RCUT                                                     
     0    -23.9615318     23  1.200                                                                 
     0     -9.5240782     23  1.200                                                                 
     1     -9.0304911     23  1.520                                                                 
     1      8.1634956     23  1.520                                                                 
     2     -9.5240782      7  1.500                                                                 
  local pseudopotential read in
  partial core-charges read in
  partial kinetic energy density read in
  kinetic energy density of atom read in
  atomic valenz-charges read in
  non local Contribution for L=           0  read in
    real space projection operators read in
  non local Contribution for L=           0  read in
    real space projection operators read in
  non local Contribution for L=           1  read in
    real space projection operators read in
  non local Contribution for L=           1  read in
    real space projection operators read in
    PAW grid and wavefunctions read in

   number of l-projection  operators is LMAX  =           4
   number of lm-projection operators is LMMAX =           8

 Optimization of the real space projectors (new method)

 maximal supplied QI-value         = 22.11
 optimisation between [QCUT,QGAM] = [ 11.28, 22.77] = [ 35.61,145.23] Ry 
 Optimized for a Real-space Cutoff    1.16 Angstroem

   l    n(q)    QCUT    max X(q) W(low)/X(q) W(high)/X(q)  e(spline) 
   0      8    11.276    53.033    0.48E-03    0.56E-03    0.11E-06
   0      8    11.276    34.740    0.48E-03    0.55E-03    0.11E-06
   1      7    11.276    30.949    0.26E-03    0.19E-04    0.19E-06
   1      7    11.276    19.518    0.24E-03    0.14E-04    0.18E-06
 Optimization of the real space projectors (new method)

 maximal supplied QI-value         = 25.13
 optimisation between [QCUT,QGAM] = [ 11.31, 22.87] = [ 35.82,146.48] Ry 
 Optimized for a Real-space Cutoff    1.00 Angstroem

   l    n(q)    QCUT    max X(q) W(low)/X(q) W(high)/X(q)  e(spline) 
   0      7    11.310   115.676    0.43E-03    0.13E-02    0.19E-06
   0      7    11.310    87.132    0.43E-03    0.13E-02    0.18E-06
   1      6    11.310     4.429    0.42E-03    0.74E-03    0.11E-06
   1      6    11.310     2.733    0.34E-03    0.55E-03    0.92E-07
 Optimization of the real space projectors (new method)

 maximal supplied QI-value         = 25.13
 optimisation between [QCUT,QGAM] = [ 11.31, 22.87] = [ 35.82,146.48] Ry 
 Optimized for a Real-space Cutoff    1.27 Angstroem

   l    n(q)    QCUT    max X(q) W(low)/X(q) W(high)/X(q)  e(spline) 
   0      9    11.310    79.467    0.75E-04    0.16E-03    0.36E-06
   0      9    11.310    66.151    0.74E-04    0.16E-03    0.36E-06
   1      8    11.310    17.416    0.35E-03    0.12E-03    0.95E-06
   1      8    11.310    12.382    0.37E-03    0.13E-03    0.98E-06
 Optimization of the real space projectors (new method)

 maximal supplied QI-value         = 24.76
 optimisation between [QCUT,QGAM] = [ 11.39, 22.77] = [ 36.31,145.25] Ry 
 Optimized for a Real-space Cutoff    1.00 Angstroem

   l    n(q)    QCUT    max X(q) W(low)/X(q) W(high)/X(q)  e(spline) 
   0      7    11.387    20.381    0.39E-03    0.13E-02    0.15E-06
   0      7    11.387    15.268    0.42E-03    0.14E-02    0.17E-06
   1      6    11.387     5.964    0.41E-03    0.11E-02    0.17E-06
   1      6    11.387     5.382    0.39E-03    0.87E-03    0.15E-06
  PAW_PBE B 06Sep2000                   :
 energy of atom  1       EATOM=  -71.1703
 kinetic energy error for atom=    0.0012 (will be added to EATOM!!)
  PAW_PBE C 08Apr2002                   :
 energy of atom  2       EATOM= -147.1560
 kinetic energy error for atom=    0.0076 (will be added to EATOM!!)
  PAW_PBE N 08Apr2002                   :
 energy of atom  3       EATOM= -264.5486
 kinetic energy error for atom=    0.0138 (will be added to EATOM!!)
  PAW_PBE O 08Apr2002                   :
 energy of atom  4       EATOM= -432.3788
 kinetic energy error for atom=    0.0224 (will be added to EATOM!!)


 POSCAR: B C N O
  positions in direct lattice
  No initial velocities read in
 exchange correlation table for  LEXCH =        8
   RHO(1)=    0.500       N(1)  =     2000
   RHO(2)=  100.500       N(2)  =     4000



--------------------------------------------------------------------------------------------------------


 ion  position               nearest neighbor table
   1  0.905  0.952  0.111-  52 1.45  91 1.45  51 1.45
   2  0.905  0.095  0.111-  53 1.45  92 1.45  52 1.45
   3  0.905  0.238  0.111-  54 1.45  93 1.45  53 1.45
   4  0.905  0.381  0.111-  55 1.45  94 1.45  54 1.45
   5  0.905  0.524  0.111-  56 1.45  95 1.45  55 1.45
   6  0.905  0.667  0.111-  57 1.45  96 1.45  56 1.45
   7  0.905  0.810  0.111-  51 1.45  97 1.45  57 1.45
   8  0.048  0.952  0.111-  59 1.45  51 1.45  58 1.45
   9  0.048  0.095  0.111-  52 1.45  60 1.45  59 1.45
  10  0.048  0.238  0.111-  53 1.45  61 1.45  60 1.45
  11  0.048  0.381  0.111-  54 1.45  62 1.45  61 1.45
  12  0.048  0.524  0.111-  55 1.45  63 1.45  62 1.45
  13  0.048  0.667  0.111-  56 1.45  64 1.45  63 1.45
  14  0.048  0.810  0.111-  57 1.45  58 1.45  64 1.45
  15  0.190  0.952  0.111-  66 1.45  58 1.45  65 1.45
  16  0.190  0.095  0.111-  67 1.45  59 1.45  66 1.45
  17  0.190  0.238  0.111-  68 1.45  60 1.45  67 1.45
  18  0.190  0.381  0.111-  69 1.45  61 1.45  68 1.45
  19  0.190  0.524  0.111-  70 1.45  62 1.45  69 1.45
  20  0.190  0.667  0.111-  71 1.45  63 1.45  70 1.45
  21  0.190  0.810  0.111-  65 1.45  64 1.45  71 1.45
  22  0.333  0.952  0.111-  73 1.45  65 1.45  72 1.45
  23  0.333  0.095  0.111-  74 1.45  66 1.45  73 1.45
  24  0.333  0.238  0.111-  75 1.45  67 1.45  74 1.45
  25  0.333  0.381  0.111-  50 1.45  68 1.45  75 1.45
  26  0.333  0.524  0.111-  76 1.45  69 1.45  50 1.45
  27  0.333  0.667  0.111-  77 1.45  70 1.45  76 1.45
  28  0.333  0.810  0.111-  72 1.45  71 1.45  77 1.45
  29  0.476  0.952  0.111-  79 1.45  72 1.45  78 1.45
  30  0.476  0.095  0.111-  80 1.45  73 1.45  79 1.45
  31  0.476  0.238  0.111-  81 1.45  74 1.45  80 1.45
  32  0.476  0.381  0.111-  98 1.45  75 1.45  81 1.45
  33  0.476  0.524  0.111-  82 1.45  50 1.45  98 1.45
  34  0.476  0.667  0.111-  83 1.45  76 1.45  82 1.45
  35  0.476  0.810  0.111-  78 1.45  77 1.45  83 1.45
  36  0.619  0.952  0.111-  85 1.45  78 1.45  84 1.45
  37  0.619  0.095  0.111-  86 1.45  79 1.45  85 1.45
  38  0.619  0.238  0.111-  87 1.45  80 1.45  86 1.45
  39  0.619  0.381  0.111-  88 1.45  81 1.45  87 1.45
  40  0.619  0.524  0.111-  89 1.45  98 1.45  88 1.45
  41  0.619  0.667  0.111-  90 1.45  82 1.45  89 1.45
  42  0.619  0.810  0.111-  84 1.45  83 1.45  90 1.45
  43  0.762  0.952  0.111-  92 1.45  84 1.45  91 1.45
  44  0.762  0.095  0.111-  93 1.45  85 1.45  92 1.45
  45  0.762  0.238  0.111-  94 1.45  86 1.45  93 1.45
  46  0.762  0.381  0.111-  95 1.45  87 1.45  94 1.45
  47  0.762  0.524  0.111-  96 1.45  88 1.45  95 1.45
  48  0.762  0.667  0.111-  97 1.45  89 1.45  96 1.45
  49  0.762  0.810  0.111-  91 1.45  90 1.45  97 1.45
  50  0.381  0.476  0.111-  25 1.45  33 1.45  26 1.45
  51  0.952  0.905  0.111-   8 1.45   7 1.45   1 1.45
  52  0.952  0.048  0.111-   1 1.45   9 1.45   2 1.45
  53  0.952  0.190  0.111-  10 1.45   2 1.45   3 1.45
  54  0.952  0.333  0.111-  11 1.45   3 1.45   4 1.45
  55  0.952  0.476  0.111-  12 1.45   4 1.45   5 1.45
  56  0.952  0.619  0.111-  13 1.45   5 1.45   6 1.45
  57  0.952  0.762  0.111-  14 1.45   6 1.45   7 1.45
  58  0.095  0.905  0.111-  14 1.45  15 1.45   8 1.45
  59  0.095  0.048  0.111-   8 1.45  16 1.45   9 1.45
  60  0.095  0.190  0.111-   9 1.45  17 1.45  10 1.45
  61  0.095  0.333  0.111-  10 1.45  18 1.45  11 1.45
  62  0.095  0.476  0.111-  11 1.45  19 1.45  12 1.45
  63  0.095  0.619  0.111-  12 1.45  20 1.45  13 1.45
  64  0.095  0.762  0.111-  13 1.45  21 1.45  14 1.45
  65  0.238  0.905  0.111-  21 1.45  22 1.45  15 1.45
  66  0.238  0.048  0.111-  15 1.45  23 1.45  16 1.45
  67  0.238  0.190  0.111-  16 1.45  24 1.45  17 1.45
  68  0.238  0.333  0.111-  17 1.45  25 1.45  18 1.45
  69  0.238  0.476  0.111-  18 1.45  26 1.45  19 1.45
  70  0.238  0.619  0.111-  19 1.45  27 1.45  20 1.45
  71  0.238  0.762  0.111-  20 1.45  28 1.45  21 1.45
  72  0.381  0.905  0.111-  28 1.45  29 1.45  22 1.45
  73  0.381  0.048  0.111-  22 1.45  30 1.45  23 1.45
  74  0.381  0.190  0.111-  23 1.45  31 1.45  24 1.45
  75  0.381  0.333  0.111-  24 1.45  32 1.45  25 1.45
  76  0.381  0.619  0.111-  26 1.45  34 1.45  27 1.45
  77  0.381  0.762  0.111-  27 1.45  35 1.45  28 1.45
  78  0.524  0.905  0.111-  35 1.45  36 1.45  29 1.45
  79  0.524  0.048  0.111-  29 1.45  37 1.45  30 1.45
  80  0.524  0.190  0.111-  30 1.45  38 1.45  31 1.45
  81  0.524  0.333  0.111-  31 1.45  39 1.45  32 1.45
  82  0.524  0.619  0.111-  33 1.45  41 1.45  34 1.45
  83  0.524  0.762  0.111-  34 1.45  42 1.45  35 1.45
  84  0.667  0.905  0.111-  42 1.45  43 1.45  36 1.45
  85  0.667  0.048  0.111-  36 1.45  44 1.45  37 1.45
  86  0.667  0.190  0.111-  37 1.45  45 1.45  38 1.45
  87  0.667  0.333  0.111-  38 1.45  46 1.45  39 1.45
  88  0.667  0.476  0.111-  39 1.45  47 1.45  40 1.45
  89  0.667  0.619  0.111-  40 1.45  48 1.45  41 1.45
  90  0.667  0.762  0.111-  41 1.45  49 1.45  42 1.45
  91  0.810  0.905  0.111-  49 1.45   1 1.45  43 1.45
  92  0.810  0.048  0.111-  43 1.45   2 1.45  44 1.45
  93  0.810  0.190  0.111-  44 1.45   3 1.45  45 1.45
  94  0.810  0.333  0.111-  45 1.45   4 1.45  46 1.45
  95  0.810  0.476  0.111-  46 1.45   5 1.45  47 1.45
  96  0.810  0.619  0.111-  47 1.45   6 1.45  48 1.45
  97  0.810  0.762  0.111-  48 1.45   7 1.45  49 1.45
  98  0.524  0.476  0.111-  32 1.45  40 1.45  33 1.45

  LATTYP: Found a hexagonal cell.
 ALAT       =    17.5279000000
 C/A-ratio  =     0.8557785017
  
  Lattice vectors:
  
 A1 = (   8.7639500000, -15.1796066750,   0.0000000000)
 A2 = (   8.7639500000,  15.1796066750,   0.0000000000)
 A3 = (   0.0000000000,   0.0000000000,  15.0000000000)


Analysis of symmetry for initial positions (statically):
=====================================================================
 Subroutine PRICEL returns:
 Original cell was already a primitive cell.
 

 Routine SETGRP: Setting up the symmetry group for a 
 hexagonal supercell.


 Subroutine GETGRP returns: Found  1 space group operations
 (whereof  1 operations were pure point group operations)
 out of a pool of 24 trial point group operations.


The static configuration has the point symmetry C_1 .


Analysis of symmetry for dynamics (positions and initial velocities):
=====================================================================
 Subroutine PRICEL returns:
 Original cell was already a primitive cell.
 

 Routine SETGRP: Setting up the symmetry group for a 
 hexagonal supercell.


 Subroutine GETGRP returns: Found  1 space group operations
 (whereof  1 operations were pure point group operations)
 out of a pool of 24 trial point group operations.


The dynamic configuration has the point symmetry C_1 .


Analysis of constrained symmetry for selective dynamics:
=====================================================================
 Subroutine PRICEL returns:
 Original cell was already a primitive cell.
 

 Routine SETGRP: Setting up the symmetry group for a 
 hexagonal supercell.


 Subroutine GETGRP returns: Found  1 space group operations
 (whereof  1 operations were pure point group operations)
 out of a pool of 24 trial point group operations.


The constrained configuration has the point symmetry C_1 .


Analysis of structural, dynamic, and magnetic symmetry:
=====================================================================
 Subroutine PRICEL returns:
 Original cell was already a primitive cell.
 

 Routine SETGRP: Setting up the symmetry group for a 
 hexagonal supercell.


 Subroutine GETGRP returns: Found  1 space group operations
 (whereof  1 operations were pure point group operations)
 out of a pool of 24 trial point group operations.


The overall configuration has the point symmetry C_1 .


 Subroutine INISYM returns: Found  1 space group operations
 (whereof  1 operations are pure point group operations),
 and found     1 'primitive' translations


----------------------------------------------------------------------------------------

                                     Primitive cell                                     

  volume of cell :    3990.9994

  direct lattice vectors                    reciprocal lattice vectors
     8.763950000-15.179606675  0.000000000     0.057051900 -0.032938930  0.000000000
     8.763950000 15.179606675  0.000000000     0.057051900  0.032938930 -0.000000000
     0.000000000  0.000000000 15.000000000    -0.000000000  0.000000000  0.066666667

  length of vectors
    17.527900000 17.527900000 15.000000000     0.065877860  0.065877860  0.066666667

  position of ions in fractional coordinates (direct lattice)
     0.904763374  0.952382971  0.111024154
     0.904763374  0.095238647  0.111024154
     0.904763374  0.238096034  0.111024154
     0.904763374  0.380953421  0.111024154
     0.904763374  0.523810809  0.111024154
     0.904763374  0.666668196  0.111024154
     0.904763374  0.809525584  0.111024154
     0.047619050  0.952382971  0.111024154
     0.047619050  0.095238647  0.111024154
     0.047619050  0.238096034  0.111024154
     0.047619050  0.380953421  0.111024154
     0.047619050  0.523810809  0.111024154
     0.047619050  0.666668196  0.111024154
     0.047619050  0.809525584  0.111024154
     0.190476438  0.952382971  0.111024154
     0.190476438  0.095238647  0.111024154
     0.190476438  0.238096034  0.111024154
     0.190476438  0.380953421  0.111024154
     0.190476438  0.523810809  0.111024154
     0.190476438  0.666668196  0.111024154
     0.190476438  0.809525584  0.111024154
     0.333333825  0.952382971  0.111024154
     0.333333825  0.095238647  0.111024154
     0.333333825  0.238096034  0.111024154
     0.333333825  0.380953421  0.111024154
     0.333333825  0.523810809  0.111024154
     0.333333825  0.666668196  0.111024154
     0.333333825  0.809525584  0.111024154
     0.476191212  0.952382971  0.111024154
     0.476191212  0.095238647  0.111024154
     0.476191212  0.238096034  0.111024154
     0.476191212  0.380953421  0.111024154
     0.476191212  0.523810809  0.111024154
     0.476191212  0.666668196  0.111024154
     0.476191212  0.809525584  0.111024154
     0.619048600  0.952382971  0.111024154
     0.619048600  0.095238647  0.111024154
     0.619048600  0.238096034  0.111024154
     0.619048600  0.380953421  0.111024154
     0.619048600  0.523810809  0.111024154
     0.619048600  0.666668196  0.111024154
     0.619048600  0.809525584  0.111024154
     0.761905987  0.952382971  0.111024154
     0.761905987  0.095238647  0.111024154
     0.761905987  0.238096034  0.111024154
     0.761905987  0.380953421  0.111024154
     0.761905987  0.523810809  0.111024154
     0.761905987  0.666668196  0.111024154
     0.761905987  0.809525584  0.111024154
     0.380953112  0.476190903  0.111015846
     0.952382661  0.904763065  0.111015846
     0.952382661  0.047618741  0.111015846
     0.952382661  0.190476128  0.111015846
     0.952382661  0.333333515  0.111015846
     0.952382661  0.476190903  0.111015846
     0.952382661  0.619048290  0.111015846
     0.952382661  0.761905677  0.111015846
     0.095238337  0.904763065  0.111015846
     0.095238337  0.047618741  0.111015846
     0.095238337  0.190476128  0.111015846
     0.095238337  0.333333515  0.111015846
     0.095238337  0.476190903  0.111015846
     0.095238337  0.619048290  0.111015846
     0.095238337  0.761905677  0.111015846
     0.238095724  0.904763065  0.111015846
     0.238095724  0.047618741  0.111015846
     0.238095724  0.190476128  0.111015846
     0.238095724  0.333333515  0.111015846
     0.238095724  0.476190903  0.111015846
     0.238095724  0.619048290  0.111015846
     0.238095724  0.761905677  0.111015846
     0.380953112  0.904763065  0.111015846
     0.380953112  0.047618741  0.111015846
     0.380953112  0.190476128  0.111015846
     0.380953112  0.333333515  0.111015846
     0.380953112  0.619048290  0.111015846
     0.380953112  0.761905677  0.111015846
     0.523810499  0.904763065  0.111015846
     0.523810499  0.047618741  0.111015846
     0.523810499  0.190476128  0.111015846
     0.523810499  0.333333515  0.111015846
     0.523810499  0.619048290  0.111015846
     0.523810499  0.761905677  0.111015846
     0.666667887  0.904763065  0.111015846
     0.666667887  0.047618741  0.111015846
     0.666667887  0.190476128  0.111015846
     0.666667887  0.333333515  0.111015846
     0.666667887  0.476190903  0.111015846
     0.666667887  0.619048290  0.111015846
     0.666667887  0.761905677  0.111015846
     0.809525274  0.904763065  0.111015846
     0.809525274  0.047618741  0.111015846
     0.809525274  0.190476128  0.111015846
     0.809525274  0.333333515  0.111015846
     0.809525274  0.476190903  0.111015846
     0.809525274  0.619048290  0.111015846
     0.809525274  0.761905677  0.111015846
     0.523810499  0.476190903  0.111015846

  ion indices of the primitive-cell ions
   primitive index   ion index
                 1           1
                 2           2
                 3           3
                 4           4
                 5           5
                 6           6
                 7           7
                 8           8
                 9           9
                10          10
                11          11
                12          12
                13          13
                14          14
                15          15
                16          16
                17          17
                18          18
                19          19
                20          20
                21          21
                22          22
                23          23
                24          24
                25          25
                26          26
                27          27
                28          28
                29          29
                30          30
                31          31
                32          32
                33          33
                34          34
                35          35
                36          36
                37          37
                38          38
                39          39
                40          40
                41          41
                42          42
                43          43
                44          44
                45          45
                46          46
                47          47
                48          48
                49          49
                50          50
                51          51
                52          52
                53          53
                54          54
                55          55
                56          56
                57          57
                58          58
                59          59
                60          60
                61          61
                62          62
                63          63
                64          64
                65          65
                66          66
                67          67
                68          68
                69          69
                70          70
                71          71
                72          72
                73          73
                74          74
                75          75
                76          76
                77          77
                78          78
                79          79
                80          80
                81          81
                82          82
                83          83
                84          84
                85          85
                86          86
                87          87
                88          88
                89          89
                90          90
                91          91
                92          92
                93          93
                94          94
                95          95
                96          96
                97          97
                98          98

----------------------------------------------------------------------------------------



 KPOINTS: KPOINTS file                            

Automatic generation of k-mesh.
 Grid dimensions read from file:
 generate k-points for:    1    1    1

 Generating k-lattice:

  Cartesian coordinates                     Fractional coordinates (reciprocal lattice)
     0.057051900 -0.032938930  0.000000000     1.000000000 -0.000000000  0.000000000
     0.057051900  0.032938930 -0.000000000    -0.000000000  1.000000000  0.000000000
    -0.000000000  0.000000000  0.066666667     0.000000000  0.000000000  1.000000000

  Length of vectors
     0.065877860  0.065877860  0.066666667

  Shift w.r.t. Gamma in fractional coordinates (k-lattice)
     0.000000000  0.000000000  0.000000000

 
 Subroutine IBZKPT returns following result:
 ===========================================
 
 Found      1 irreducible k-points:
 
 Following reciprocal coordinates:
            Coordinates               Weight
  0.000000  0.000000  0.000000      1.000000
 
 Following cartesian coordinates:
            Coordinates               Weight
  0.000000 -0.000000  0.000000      1.000000
 
 
 Subroutine IBZKPT_HF returns following result:
 ==============================================
 
 Found      1 k-points in 1st BZ
 the following      1 k-points will be used (e.g. in the exchange kernel)
 Following reciprocal coordinates:   # in IRBZ
  0.000000  0.000000  0.000000    1.00000000   1 t-inv F


--------------------------------------------------------------------------------------------------------




 Dimension of arrays:
   k-points           NKPTS =      1   k-points in BZ     NKDIM =      1   number of bands    NBANDS=    252
   number of dos      NEDOS =    301   number of ions     NIONS =     98
   non local maximal  LDIM  =      4   non local SUM 2l+1 LMDIM =      8
   total plane-waves  NPLWV = 774144
   max r-space proj   IRMAX =   1721   max aug-charges    IRDMAX=   3224
   dimension x,y,z NGX =    96 NGY =   96 NGZ =   84
   dimension x,y,z NGXF=   192 NGYF=  192 NGZF=  168
   support grid    NGXF=   192 NGYF=  192 NGZF=  168
   ions per type =              49   1  47   1
   NGX,Y,Z   is equivalent  to a cutoff of   9.11,  9.11,  9.31 a.u.
   NGXF,Y,Z  is equivalent  to a cutoff of  18.21, 18.21, 18.62 a.u.

 SYSTEM =  unknown system                          
 POSCAR =  B C N O                                 

 Startparameter for this run:
   NWRITE =      2    write-flag & timer
   PREC   = normal    normal or accurate (medium, high low for compatibility)
   ISTART =      0    job   : 0-new  1-cont  2-samecut
   ICHARG =      2    charge: 1-file 2-atom 10-const
   ISPIN  =      2    spin polarized calculation?
   LNONCOLLINEAR =      F non collinear calculations
   LSORBIT =      F    spin-orbit coupling
   INIWAV =      1    electr: 0-lowe 1-rand  2-diag
   LASPH  =      F    aspherical Exc in radial PAW
 Electronic Relaxation 1
   ENCUT  =  500.0 eV  36.75 Ry    6.06 a.u.  31.96 31.96 27.35*2*pi/ulx,y,z
   ENINI  =  500.0     initial cutoff
   ENAUG  =  644.9 eV  augmentation charge cutoff
   NELM   =     60;   NELMIN=  4; NELMDL= -5     # of ELM steps 
   EDIFF  = 0.1E-03   stopping-criterion for ELM
   LREAL  =      T    real-space projection
   NLSPLINE    = F    spline interpolate recip. space projectors
   LCOMPAT=      F    compatible to vasp.4.4
   GGA_COMPAT  = F    GGA compatible to vasp.4.4-vasp.4.6
   LMAXPAW     = -100 max onsite density
   LMAXMIX     =    2 max onsite mixed and CHGCAR
   VOSKOWN=      0    Vosko Wilk Nusair interpolation
   ROPT   =   -0.00050  -0.00050  -0.00050  -0.00050
 Ionic relaxation
   EDIFFG = -.5E-01   stopping-criterion for IOM
   NSW    =    500    number of steps for IOM
   NBLOCK =      1;   KBLOCK =    500    inner block; outer block 
   IBRION =      2    ionic relax: 0-MD 1-quasi-New 2-CG
   NFREE  =      1    steps in history (QN), initial steepest desc. (CG)
   ISIF   =      2    stress and relaxation
   IWAVPR =     11    prediction:  0-non 1-charg 2-wave 3-comb
   ISYM   =      3    0-nonsym 1-usesym 2-fastsym
   LCORR  =      T    Harris-Foulkes like correction to forces

   POTIM  = 0.5000    time-step for ionic-motion
   TEIN   =    0.0    initial temperature
   TEBEG  =    0.0;   TEEND  =   0.0 temperature during run
   SMASS  =  -3.00    Nose mass-parameter (am)
   estimated Nose-frequenzy (Omega)   =  0.10E-29 period in steps = 0.13E+47 mass=  -0.702E-26a.u.
   SCALEE = 1.0000    scale energy and forces
   NPACO  =    256;   APACO  = 16.0  distance and # of slots for P.C.
   PSTRESS=    0.0 pullay stress

  Mass of Ions in am
   POMASS =  10.81 12.01 14.00 16.00
  Ionic Valenz
   ZVAL   =   3.00  4.00  5.00  6.00
  Atomic Wigner-Seitz radii
   RWIGS  =  -1.00 -1.00 -1.00 -1.00
  virtual crystal weights 
   VCA    =   1.00  1.00  1.00  1.00
   NELECT =     392.0000    total number of electrons
   NUPDOWN=      -1.0000    fix difference up-down

 DOS related values:
   EMIN   =  10.00;   EMAX   =-10.00  energy-range for DOS
   EFERMI =   0.00
   ISMEAR =     0;   SIGMA  =   0.05  broadening in eV -4-tet -1-fermi 0-gaus

 Electronic relaxation 2 (details)
   IALGO  =     53    algorithm
   LDIAG  =      T    sub-space diagonalisation (order eigenvalues)
   LSUBROT=      F    optimize rotation matrix (better conditioning)
   TURBO    =      0    0=normal 1=particle mesh
   IRESTART =      0    0=no restart 2=restart with 2 vectors
   NREBOOT  =      0    no. of reboots
   NMIN     =      0    reboot dimension
   EREF     =   0.00    reference energy to select bands
   IMIX   =      4    mixing-type and parameters
     AMIX     =   0.40;   BMIX     =  1.00
     AMIX_MAG =   1.60;   BMIX_MAG =  1.00
     AMIN     =   0.10
     WC   =   100.;   INIMIX=   1;  MIXPRE=   1;  MAXMIX= -45

 Intra band minimization:
   WEIMIN = 0.0010     energy-eigenvalue tresh-hold
   EBREAK =  0.99E-07  absolut break condition
   DEPER  =   0.30     relativ break condition  

   TIME   =   0.40     timestep for ELM

  volume/ion in A,a.u.               =      40.72       274.82
  Fermi-wavevector in a.u.,A,eV,Ry     =   0.755341  1.427387  7.762665  0.570540
  Thomas-Fermi vector in A             =   1.853213

 Write flags
   LWAVE        =      T    write WAVECAR
   LDOWNSAMPLE  =      F    k-point downsampling of WAVECAR
   LCHARG       =      T    write CHGCAR
   LVTOT        =      F    write LOCPOT, total local potential
   LVHAR        =      F    write LOCPOT, Hartree potential only
   LELF         =      F    write electronic localiz. function (ELF)
   LORBIT       =     11    0 simple, 1 ext, 2 COOP (PROOUT), +10 PAW based schemes


 Dipole corrections
   LMONO  =      F    monopole corrections only (constant potential shift)
   LDIPOL =      F    correct potential (dipole corrections)
   IDIPOL =      0    1-x, 2-y, 3-z, 4-all directions 
   EPSILON=  1.0000000 bulk dielectric constant

 Exchange correlation treatment:
   GGA     =    PE    GGA type
   LEXCH   =     8    internal setting for exchange type
   VOSKOWN=      0    Vosko Wilk Nusair interpolation
   EXXOEP  =     0    0=HF, 1=EXX-LHF (local Hartree Fock) 2=EXX OEP
   LHFCALC =     T    Hartree Fock is set to
   LSYMGRAD=     F    symmetrize gradient (conserves proper symmetry)
   PRECFOCK=fast      Normal, Fast or Accurate (Low or Medium for compatibility)
   LRHFCALC=     F    long range Hartree Fock
   LRSCOR  =     F    long range correlation only (use DFT for short range part)
   LTHOMAS =     F    Thomas Fermi screening in HF
   LMODELHF=     F    short range full HF, long range fraction AEXX
   LFOCKACE=     T    use Adeptively-Compressed-Exchange operator
   ENCUT4O =  -1.0   cutoff for four orbital integrals eV
   LMAXFOCK=     4    L truncation for augmentation on plane wave grid
   LMAXFOCKAE=  -1    L truncation for all-electron charge restoration on plane wave grid
   NMAXFOCKAE=   1    number of basis functions for all-electron charge restoration
   LFOCKAEDFT=     F  apply the AE augmentation even for DFT
   NKREDX  =     1    reduce k-point grid by
   NKREDY  =     1    reduce k-point grid by
   NKREDZ  =     1    reduce k-point grid by
   SHIFTRED=     F    shift reduced grid of Gamma
   HFKIDENT=     F    idential grid for each k-point
   ODDONLY =     F    use only odd q-grid points
   EVENONLY=     F    use only even q-grid points
   HFALPHA =   -1.0000 decay constant for conv. correction
   MCALPHA =    0.0000 extent of test-charge in conv. correction in multipole expansion
   AEXX    =    0.2500 exact exchange contribution
   HFSCREEN=    0.2000 screening length (either q_TF or 0.3 A-1)
   HFSCREENC=   0.2000 screening length for correlation (either q_TF or 0.3 A-1)
   HFRCUT  =    0.0000 spherical cutoff for potential kernel
   ALDAX   =    0.7500 LDA exchange part
   AGGAX   =    0.7500 GGA exchange part
   ALDAC   =    1.0000 LDA correlation
   AGGAC   =    1.0000 GGA correlation
   ENCUTFOCK=  -1.0 apply spherical cutoff to Coloumb kernel
   NBANDSGWLOW=     1    first orbital included in HF term
   NBLOCK_FOCK=    64    blocking factor in FOCK_ACC
 Linear response parameters
   LEPSILON=     F    determine dielectric tensor
   LRPA    =     F    only Hartree local field effects (RPA)
   LNABLA  =     F    use nabla operator in PAW spheres
   LVEL    =     F    velocity operator in full k-point grid
   LINTERFAST=   F  fast interpolation
   KINTER  =     0    interpolate to denser k-point grid
   CSHIFT  =0.1000    complex shift for real part using Kramers Kronig
   OMEGAMAX=  -1.0    maximum frequency
   DEG_THRESHOLD= 0.2000000E-02 threshold for treating states as degnerate
   RTIME   =   -0.100 relaxation time in fs
  (WPLASMAI=    0.000 imaginary part of plasma frequency in eV, 0.658/RTIME)
   DFIELD  = 0.0000000 0.0000000 0.0000000 field for delta impulse in time

 Orbital magnetization related:
   ORBITALMAG=     F  switch on orbital magnetization
   LCHIMAG   =     F  perturbation theory with respect to B field
   DQ        =  0.001000  dq finite difference perturbation B field
   LLRAUG    =     F  two centre corrections for induced B field



--------------------------------------------------------------------------------------------------------


 conjugate gradient relaxation of ions
   using selective dynamics as specified on POSCAR
 charge density and potential will be updated during run
 spin polarized calculation
 Conjugate gradient for all bands (Freysoldt, et al. PRB 79, 241103 (2009))
 perform sub-space diagonalisation
    before iterative eigenvector-optimisation
 modified Broyden-mixing scheme, WC =      100.0
 initial mixing is a Kerker type mixing with AMIX =  0.4000 and BMIX =      1.0000
 Hartree-type preconditioning will be used
 using additional bands           56
 real space projection scheme for non local part
 use partial core corrections
 no Harris-corrections to forces 
 use gradient corrections 
 use of overlap-Matrix (Vanderbilt PP)
 Gauss-broadening in eV      SIGMA  =   0.05


--------------------------------------------------------------------------------------------------------


  energy-cutoff  :      500.00
  volume of cell :     3991.00
      direct lattice vectors                 reciprocal lattice vectors
     8.763950000-15.179606675  0.000000000     0.057051900 -0.032938930  0.000000000
     8.763950000 15.179606675  0.000000000     0.057051900  0.032938930 -0.000000000
     0.000000000  0.000000000 15.000000000    -0.000000000  0.000000000  0.066666667

  length of vectors
    17.527900000 17.527900000 15.000000000     0.065877860  0.065877860  0.066666667



 k-points in units of 2pi/SCALE and weight: KPOINTS file                            
   0.00000000  0.00000000  0.00000000       1.000

 k-points in reciprocal lattice and weights: KPOINTS file                            
   0.00000000  0.00000000  0.00000000       1.000

 position of ions in fractional coordinates (direct lattice) 
   0.90476337  0.95238297  0.11102415
   0.90476337  0.09523865  0.11102415
   0.90476337  0.23809603  0.11102415
   0.90476337  0.38095342  0.11102415
   0.90476337  0.52381081  0.11102415
   0.90476337  0.66666820  0.11102415
   0.90476337  0.80952558  0.11102415
   0.04761905  0.95238297  0.11102415
   0.04761905  0.09523865  0.11102415
   0.04761905  0.23809603  0.11102415
   0.04761905  0.38095342  0.11102415
   0.04761905  0.52381081  0.11102415
   0.04761905  0.66666820  0.11102415
   0.04761905  0.80952558  0.11102415
   0.19047644  0.95238297  0.11102415
   0.19047644  0.09523865  0.11102415
   0.19047644  0.23809603  0.11102415
   0.19047644  0.38095342  0.11102415
   0.19047644  0.52381081  0.11102415
   0.19047644  0.66666820  0.11102415
   0.19047644  0.80952558  0.11102415
   0.33333383  0.95238297  0.11102415
   0.33333383  0.09523865  0.11102415
   0.33333383  0.23809603  0.11102415
   0.33333383  0.38095342  0.11102415
   0.33333383  0.52381081  0.11102415
   0.33333383  0.66666820  0.11102415
   0.33333383  0.80952558  0.11102415
   0.47619121  0.95238297  0.11102415
   0.47619121  0.09523865  0.11102415
   0.47619121  0.23809603  0.11102415
   0.47619121  0.38095342  0.11102415
   0.47619121  0.52381081  0.11102415
   0.47619121  0.66666820  0.11102415
   0.47619121  0.80952558  0.11102415
   0.61904860  0.95238297  0.11102415
   0.61904860  0.09523865  0.11102415
   0.61904860  0.23809603  0.11102415
   0.61904860  0.38095342  0.11102415
   0.61904860  0.52381081  0.11102415
   0.61904860  0.66666820  0.11102415
   0.61904860  0.80952558  0.11102415
   0.76190599  0.95238297  0.11102415
   0.76190599  0.09523865  0.11102415
   0.76190599  0.23809603  0.11102415
   0.76190599  0.38095342  0.11102415
   0.76190599  0.52381081  0.11102415
   0.76190599  0.66666820  0.11102415
   0.76190599  0.80952558  0.11102415
   0.38095311  0.47619090  0.11101585
   0.95238266  0.90476306  0.11101585
   0.95238266  0.04761874  0.11101585
   0.95238266  0.19047613  0.11101585
   0.95238266  0.33333352  0.11101585
   0.95238266  0.47619090  0.11101585
   0.95238266  0.61904829  0.11101585
   0.95238266  0.76190568  0.11101585
   0.09523834  0.90476306  0.11101585
   0.09523834  0.04761874  0.11101585
   0.09523834  0.19047613  0.11101585
   0.09523834  0.33333352  0.11101585
   0.09523834  0.47619090  0.11101585
   0.09523834  0.61904829  0.11101585
   0.09523834  0.76190568  0.11101585
   0.23809572  0.90476306  0.11101585
   0.23809572  0.04761874  0.11101585
   0.23809572  0.19047613  0.11101585
   0.23809572  0.33333352  0.11101585
   0.23809572  0.47619090  0.11101585
   0.23809572  0.61904829  0.11101585
   0.23809572  0.76190568  0.11101585
   0.38095311  0.90476306  0.11101585
   0.38095311  0.04761874  0.11101585
   0.38095311  0.19047613  0.11101585
   0.38095311  0.33333352  0.11101585
   0.38095311  0.61904829  0.11101585
   0.38095311  0.76190568  0.11101585
   0.52381050  0.90476306  0.11101585
   0.52381050  0.04761874  0.11101585
   0.52381050  0.19047613  0.11101585
   0.52381050  0.33333352  0.11101585
   0.52381050  0.61904829  0.11101585
   0.52381050  0.76190568  0.11101585
   0.66666789  0.90476306  0.11101585
   0.66666789  0.04761874  0.11101585
   0.66666789  0.19047613  0.11101585
   0.66666789  0.33333352  0.11101585
   0.66666789  0.47619090  0.11101585
   0.66666789  0.61904829  0.11101585
   0.66666789  0.76190568  0.11101585
   0.80952527  0.90476306  0.11101585
   0.80952527  0.04761874  0.11101585
   0.80952527  0.19047613  0.11101585
   0.80952527  0.33333352  0.11101585
   0.80952527  0.47619090  0.11101585
   0.80952527  0.61904829  0.11101585
   0.80952527  0.76190568  0.11101585
   0.52381050  0.47619090  0.11101585

 position of ions in cartesian coordinates  (Angst):
  16.27593771  0.72284674  1.66536231
   8.76396771-12.28826696  1.66536231
  10.01596271-10.11974801  1.66536231
  11.26795771 -7.95122906  1.66536231
  12.51995271 -5.78271011  1.66536231
  13.77194771 -3.61419116  1.66536231
  15.02394271 -1.44567221  1.66536231
   8.76396771 13.73396045  1.66536231
   1.25199771  0.72284674  1.66536231
   2.50399271  2.89136569  1.66536231
   3.75598771  5.05988465  1.66536231
   5.00798271  7.22840360  1.66536231
   6.25997771  9.39692255  1.66536231
   7.51197271 11.56544150  1.66536231
  10.01596271 11.56544150  1.66536231
   2.50399271 -1.44567221  1.66536231
   3.75598771  0.72284674  1.66536231
   5.00798271  2.89136569  1.66536231
   6.25997771  5.05988465  1.66536231
   7.51197271  7.22840360  1.66536231
   8.76396771  9.39692255  1.66536231
  11.26795771  9.39692255  1.66536231
   3.75598771 -3.61419116  1.66536231
   5.00798271 -1.44567221  1.66536231
   6.25997771  0.72284674  1.66536231
   7.51197271  2.89136569  1.66536231
   8.76396771  5.05988465  1.66536231
  10.01596271  7.22840360  1.66536231
  12.51995271  7.22840360  1.66536231
   5.00798271 -5.78271011  1.66536231
   6.25997771 -3.61419116  1.66536231
   7.51197271 -1.44567221  1.66536231
   8.76396771  0.72284674  1.66536231
  10.01596271  2.89136569  1.66536231
  11.26795771  5.05988465  1.66536231
  13.77194771  5.05988465  1.66536231
   6.25997771 -7.95122906  1.66536231
   7.51197271 -5.78271011  1.66536231
   8.76396771 -3.61419116  1.66536231
  10.01596271 -1.44567221  1.66536231
  11.26795771  0.72284674  1.66536231
  12.51995271  2.89136569  1.66536231
  15.02394271  2.89136569  1.66536231
   7.51197271-10.11974801  1.66536231
   8.76396771 -7.95122906  1.66536231
  10.01596271 -5.78271011  1.66536231
  11.26795771 -3.61419116  1.66536231
  12.51995271 -1.44567221  1.66536231
  13.77194771  0.72284674  1.66536231
   7.51196729  1.44567221  1.66523769
  16.27593229 -0.72284674  1.66523769
   8.76396229-13.73396045  1.66523769
  10.01595729-11.56544150  1.66523769
  11.26795229 -9.39692255  1.66523769
  12.51994729 -7.22840360  1.66523769
  13.77194229 -5.05988465  1.66523769
  15.02393729 -2.89136569  1.66523769
   8.76396229 12.28826696  1.66523769
   1.25199229 -0.72284674  1.66523769
   2.50398729  1.44567221  1.66523769
   3.75598229  3.61419116  1.66523769
   5.00797729  5.78271011  1.66523769
   6.25997229  7.95122906  1.66523769
   7.51196729 10.11974801  1.66523769
  10.01595729 10.11974801  1.66523769
   2.50398729 -2.89136569  1.66523769
   3.75598229 -0.72284674  1.66523769
   5.00797729  1.44567221  1.66523769
   6.25997229  3.61419116  1.66523769
   7.51196729  5.78271011  1.66523769
   8.76396229  7.95122906  1.66523769
  11.26795229  7.95122906  1.66523769
   3.75598229 -5.05988465  1.66523769
   5.00797729 -2.89136569  1.66523769
   6.25997229 -0.72284674  1.66523769
   8.76396229  3.61419116  1.66523769
  10.01595729  5.78271011  1.66523769
  12.51994729  5.78271011  1.66523769
   5.00797729 -7.22840360  1.66523769
   6.25997229 -5.05988465  1.66523769
   7.51196729 -2.89136569  1.66523769
  10.01595729  1.44567221  1.66523769
  11.26795229  3.61419116  1.66523769
  13.77194229  3.61419116  1.66523769
   6.25997229 -9.39692255  1.66523769
   7.51196729 -7.22840360  1.66523769
   8.76396229 -5.05988465  1.66523769
  10.01595729 -2.89136569  1.66523769
  11.26795229 -0.72284674  1.66523769
  12.51994729  1.44567221  1.66523769
  15.02393729  1.44567221  1.66523769
   7.51196729-11.56544150  1.66523769
   8.76396229 -9.39692255  1.66523769
  10.01595729 -7.22840360  1.66523769
  11.26795229 -5.05988465  1.66523769
  12.51994729 -2.89136569  1.66523769
  13.77194229 -0.72284674  1.66523769
   8.76396229 -0.72284674  1.66523769



--------------------------------------------------------------------------------------------------------


 use serial FFT for orbitals x direction half grid
 k-point   1 :   0.0000 0.0000 0.0000  plane waves:   50608

 maximum and minimum number of plane-waves per node :     50608    50608

 maximum number of plane-waves:     50608
 maximum index in each direction: 
   IXMAX=   31   IYMAX=   27   IZMAX=   27
   IXMIN=    0   IYMIN=  -31   IZMIN=  -27


 serial   3D FFT for wavefunctions
 parallel 3D FFT for charge:
    minimum data exchange during FFTs selected (reduces bandwidth)


 FFT grid for exact exchange (Hartree Fock) 
  NGX = 72; NGY = 72; NGZ = 56

 use serial FFT for orbitals x direction half grid

 Radii for the augmentation spheres in the non-local exchange
 for species   1 augmentation radius   1.036 (default was   0.767)
       energy cutoff for augmentation   2000.0
 for species   2 augmentation radius   0.944 (default was   0.699)
       energy cutoff for augmentation   2000.0
 for species   3 augmentation radius   0.957 (default was   0.709)
       energy cutoff for augmentation   2000.0
 for species   4 augmentation radius   0.974 (default was   0.722)
       energy cutoff for augmentation   2000.0
 Maximum index for augmentation-charges in exchange          342
  SETUP_FOCK is finished

 total amount of memory used by VASP MPI-rank0   167259. kBytes
=======================================================================

   base      :      30000. kBytes
   nonlr-proj:      12114. kBytes
   fftplans  :       9558. kBytes
   grid      :      80990. kBytes
   one-center:        301. kBytes
   HF        :         18. kBytes
   wavefun   :      34278. kBytes

     INWAV:  cpu time      0.0001: real time      0.0001
 Broyden mixing: mesh for mixing (old mesh)
   NGX = 63   NGY = 63   NGZ = 55
  (NGX  =192   NGY  =192   NGZ  =168)
  gives a total of 218295 points

 initial charge density was supplied:
 charge density of overlapping atoms calculated
 number of electron     392.0000000 magnetization      -2.0000000
 keeping initial charge density in first step


--------------------------------------------------------------------------------------------------------


 Maximum index for non-local projection operator         1634
 Maximum index for augmentation-charges          227 (set IRDMAX)


--------------------------------------------------------------------------------------------------------


 First call to EWALD:  gamma=   0.112
 Maximum number of real-space cells 3x 3x 3
 Maximum number of reciprocal cells 3x 3x 3

    FEWALD:  cpu time      0.0055: real time      0.0055


--------------------------------------- Iteration      1(   1)  ---------------------------------------


    POTLOK:  cpu time      0.4893: real time      0.4904
    SETDIJ:  cpu time      0.1381: real time      0.1384
    TRIAL :  cpu time      3.7638: real time      3.8116
    CORREC:  cpu time      0.0001: real time      0.0001
    --------------------------------------------
      LOOP:  cpu time      4.4036: real time      4.4529

 eigenvalue-minimisations  :  1512
 total energy-change (2. order) : 0.4727346E+04  (-0.1482970E+05)
 number of electron     392.0000000 magnetization      -2.0000000
 augmentation part      392.0000000 magnetization      -2.0000000

 Free energy of the ion-electron system (eV)
  ---------------------------------------------------
  alpha Z        PSCENC =       214.13764023
  Ewald energy   TEWEN  =     38608.91023382
  -Hartree energ DENC   =    -51201.47028572
  -exchange      EXHF   =         0.00000000
  -V(xc)+E(xc)   XCENC  =      1327.13011228
  PAW double counting   =     12206.45473125   -14429.77688821
  entropy T*S    EENTRO =        -0.03848371
  eigenvalues    EBANDS =      1671.74878272
  atomic energy  EATOM  =     16330.25046645
  ---------------------------------------------------
  free energy    TOTEN  =      4727.34630912 eV

  energy without entropy =     4727.38479283  energy(sigma->0) =     4727.36555098
  exchange ACFDT corr.  =         0.00000000  see jH, gK, PRB 81, 115126


--------------------------------------------------------------------------------------------------------




--------------------------------------- Iteration      1(   2)  ---------------------------------------


    TRIAL :  cpu time      4.7879: real time      4.7969
    CORREC:  cpu time      0.0002: real time      0.0002
    --------------------------------------------
      LOOP:  cpu time      4.7885: real time      4.7989

 eigenvalue-minimisations  :  2016
 total energy-change (2. order) :-0.5451059E+04  (-0.5038194E+04)
 number of electron     392.0000000 magnetization      -2.0000000
 augmentation part      392.0000000 magnetization      -2.0000000

 Free energy of the ion-electron system (eV)
  ---------------------------------------------------
  alpha Z        PSCENC =       214.13764023
  Ewald energy   TEWEN  =     38608.91023382
  -Hartree energ DENC   =    -51201.47028572
  -exchange      EXHF   =         0.00000000
  -V(xc)+E(xc)   XCENC  =      1327.13011228
  PAW double counting   =     12206.45473125   -14429.77688821
  entropy T*S    EENTRO =        -0.05126158
  eigenvalues    EBANDS =     -3779.29780715
  atomic energy  EATOM  =     16330.25046645
  ---------------------------------------------------
  free energy    TOTEN  =      -723.71305862 eV

  energy without entropy =     -723.66179703  energy(sigma->0) =     -723.68742782
  exchange ACFDT corr.  =         0.00000000  see jH, gK, PRB 81, 115126


--------------------------------------------------------------------------------------------------------




--------------------------------------- Iteration      1(   3)  ---------------------------------------


    TRIAL :  cpu time      4.7726: real time      4.7816
    CORREC:  cpu time      0.0001: real time      0.0001
    --------------------------------------------
      LOOP:  cpu time      4.7730: real time      4.7821

 eigenvalue-minimisations  :  2016
 total energy-change (2. order) :-0.2039216E+04  (-0.1955267E+04)
 number of electron     392.0000000 magnetization      -2.0000000
 augmentation part      392.0000000 magnetization      -2.0000000

 Free energy of the ion-electron system (eV)
  ---------------------------------------------------
  alpha Z        PSCENC =       214.13764023
  Ewald energy   TEWEN  =     38608.91023382
  -Hartree energ DENC   =    -51201.47028572
  -exchange      EXHF   =         0.00000000
  -V(xc)+E(xc)   XCENC  =      1327.13011228
  PAW double counting   =     12206.45473125   -14429.77688821
  entropy T*S    EENTRO =        -0.00010692
  eigenvalues    EBANDS =     -5818.56462176
  atomic energy  EATOM  =     16330.25046645
  ---------------------------------------------------
  free energy    TOTEN  =     -2762.92871856 eV

  energy without entropy =    -2762.92861164  energy(sigma->0) =    -2762.92866510
  exchange ACFDT corr.  =         0.00000000  see jH, gK, PRB 81, 115126


--------------------------------------------------------------------------------------------------------




--------------------------------------- Iteration      1(   4)  ---------------------------------------


    TRIAL :  cpu time      4.7696: real time      4.7788
    CORREC:  cpu time      0.0001: real time      0.0001
    --------------------------------------------
      LOOP:  cpu time      4.7699: real time      4.7792

 eigenvalue-minimisations  :  2016
 total energy-change (2. order) :-0.5318011E+03  (-0.5196901E+03)
 number of electron     392.0000000 magnetization      -2.0000000
 augmentation part      392.0000000 magnetization      -2.0000000

 Free energy of the ion-electron system (eV)
  ---------------------------------------------------
  alpha Z        PSCENC =       214.13764023
  Ewald energy   TEWEN  =     38608.91023382
  -Hartree energ DENC   =    -51201.47028572
  -exchange      EXHF   =         0.00000000
  -V(xc)+E(xc)   XCENC  =      1327.13011228
  PAW double counting   =     12206.45473125   -14429.77688821
  entropy T*S    EENTRO =        -0.00000000
  eigenvalues    EBANDS =     -6350.36579887
  atomic energy  EATOM  =     16330.25046645
  ---------------------------------------------------
  free energy    TOTEN  =     -3294.72978875 eV

  energy without entropy =    -3294.72978875  energy(sigma->0) =    -3294.72978875
  exchange ACFDT corr.  =         0.00000000  see jH, gK, PRB 81, 115126


--------------------------------------------------------------------------------------------------------




--------------------------------------- Iteration      1(   5)  ---------------------------------------


    POTLOK:  cpu time      1.0175: real time      1.0198
    SETDIJ:  cpu time      0.1554: real time      0.1558
    TRIAL :  cpu time     49.0004: real time     49.0978
    CORREC:  cpu time      0.0001: real time      0.0001
    CHARGE:  cpu time      0.3095: real time      0.3101
    --------------------------------------------
      LOOP:  cpu time     50.4832: real time     50.5840

 eigenvalue-minimisations  :  1944
 total energy-change (2. order) : 0.2226087E+04  (-0.1339311E+03)
 number of electron     392.0000080 magnetization       0.0000008
 augmentation part       15.9312015 magnetization       0.9577379

 Free energy of the ion-electron system (eV)
  ---------------------------------------------------
  alpha Z        PSCENC =       214.13764023
  Ewald energy   TEWEN  =     38608.91023382
  -Hartree energ DENC   =    -51201.47028572
  -exchange      EXHF   =       991.54071947
  -V(xc)+E(xc)   XCENC  =      1019.70549659
  PAW double counting   =     12461.98371451   -12461.34046709
  entropy T*S    EENTRO =        -0.00000000
  eigenvalues    EBANDS =     -7032.35987144
  atomic energy  EATOM  =     16330.25046645
  ---------------------------------------------------
  free energy    TOTEN  =     -1068.64235317 eV

  energy without entropy =    -1068.64235317  energy(sigma->0) =    -1068.64235317
  exchange ACFDT corr.  =         0.00000000  see jH, gK, PRB 81, 115126


--------------------------------------------------------------------------------------------------------




--------------------------------------- Iteration      1(   6)  ---------------------------------------


    POTLOK:  cpu time      1.0413: real time      1.0436
    SETDIJ:  cpu time      0.1566: real time      0.1569
    TRIAL :  cpu time     46.6302: real time     46.7487
    CORREC:  cpu time      0.0001: real time      0.0001
    CHARGE:  cpu time      0.3054: real time      0.3060
    --------------------------------------------
      LOOP:  cpu time     48.1339: real time     48.2558

 eigenvalue-minimisations  :     0
 total energy-change (2. order) : 0.2226250E+03  (-0.2727893E+03)
 number of electron     392.0000045 magnetization       0.0000005
 augmentation part       12.0442642 magnetization       0.6016074

 Free energy of the ion-electron system (eV)
  ---------------------------------------------------
  alpha Z        PSCENC =       214.13764023
  Ewald energy   TEWEN  =     38608.91023382
  -Hartree energ DENC   =    -54745.25067158
  -exchange      EXHF   =      1018.00984519
  -V(xc)+E(xc)   XCENC  =      1129.87843044
  PAW double counting   =     47262.42668085   -47285.86849283
  entropy T*S    EENTRO =        -0.00000000
  eigenvalues    EBANDS =     -3378.51152835
  atomic energy  EATOM  =     16330.25046645
  ---------------------------------------------------
  free energy    TOTEN  =      -846.01739577 eV

  energy without entropy =     -846.01739577  energy(sigma->0) =     -846.01739577
  exchange ACFDT corr.  =         0.00000000  see jH, gK, PRB 81, 115126


--------------------------------------------------------------------------------------------------------




--------------------------------------- Iteration      1(   7)  ---------------------------------------


    POTLOK:  cpu time      1.0350: real time      1.0373
    SETDIJ:  cpu time      0.1576: real time      0.1580
    TRIAL :  cpu time     46.7474: real time     46.8433
    CORREC:  cpu time      0.0001: real time      0.0001
    CHARGE:  cpu time      0.3137: real time      0.3143
    --------------------------------------------
      LOOP:  cpu time     48.2542: real time     48.3534

 eigenvalue-minimisations  :     0
 total energy-change (2. order) :-0.1229767E+03  (-0.2170340E+02)
 number of electron     392.0000035 magnetization       0.0000004
 augmentation part       10.6447522 magnetization       0.3861801

 Free energy of the ion-electron system (eV)
  ---------------------------------------------------
  alpha Z        PSCENC =       214.13764023
  Ewald energy   TEWEN  =     38608.91023382
  -Hartree energ DENC   =    -52745.89185178
  -exchange      EXHF   =       944.21698835
  -V(xc)+E(xc)   XCENC  =      1062.88072287
  PAW double counting   =     50554.44098902   -50570.21368767
  entropy T*S    EENTRO =        -0.00000000
  eigenvalues    EBANDS =     -5367.72559931
  atomic energy  EATOM  =     16330.25046645
  ---------------------------------------------------
  free energy    TOTEN  =      -968.99409801 eV

  energy without entropy =     -968.99409801  energy(sigma->0) =     -968.99409801
  exchange ACFDT corr.  =        -0.02444659  see jH, gK, PRB 81, 115126


--------------------------------------------------------------------------------------------------------




--------------------------------------- Iteration      1(   8)  ---------------------------------------


    POTLOK:  cpu time      1.0639: real time      1.0662
    SETDIJ:  cpu time      0.1584: real time      0.1587
    TRIAL :  cpu time     48.5522: real time     48.6493
    CORREC:  cpu time      0.0001: real time      0.0001
    CHARGE:  cpu time      0.3073: real time      0.3078
    --------------------------------------------
      LOOP:  cpu time     50.0822: real time     50.1827

 eigenvalue-minimisations  :     0
 total energy-change (2. order) :-0.3428548E+01  (-0.2773930E+02)
 number of electron     392.0000040 magnetization       0.0000003
 augmentation part       11.0103298 magnetization       0.2954275

 Free energy of the ion-electron system (eV)
  ---------------------------------------------------
  alpha Z        PSCENC =       214.13764023
  Ewald energy   TEWEN  =     38608.91023382
  -Hartree energ DENC   =    -52538.14886437
  -exchange      EXHF   =       932.68282503
  -V(xc)+E(xc)   XCENC  =      1051.19255214
  PAW double counting   =     51509.37878039   -51522.73561709
  entropy T*S    EENTRO =        -0.00000000
  eigenvalues    EBANDS =     -5558.09066234
  atomic energy  EATOM  =     16330.25046645
  ---------------------------------------------------
  free energy    TOTEN  =      -972.42264573 eV

  energy without entropy =     -972.42264573  energy(sigma->0) =     -972.42264573
  exchange ACFDT corr.  =        -0.00000000  see jH, gK, PRB 81, 115126


--------------------------------------------------------------------------------------------------------




--------------------------------------- Iteration      1(   9)  ---------------------------------------


    POTLOK:  cpu time      1.0194: real time      1.0217
    SETDIJ:  cpu time      0.1574: real time      0.1577
    TRIAL :  cpu time     46.0758: real time     46.1674
    CORREC:  cpu time      0.0002: real time      0.0001
    CHARGE:  cpu time      0.3076: real time      0.3082
    --------------------------------------------
      LOOP:  cpu time     47.5607: real time     47.6556

 eigenvalue-minimisations  :     0
 total energy-change (2. order) :-0.1513307E+02  (-0.8579219E+01)
 number of electron     392.0000045 magnetization       0.0000003
 augmentation part       11.5711121 magnetization       0.2451474

 Free energy of the ion-electron system (eV)
  ---------------------------------------------------
  alpha Z        PSCENC =       214.13764023
  Ewald energy   TEWEN  =     38608.91023382
  -Hartree energ DENC   =    -53076.51636889
  -exchange      EXHF   =       948.34859831
  -V(xc)+E(xc)   XCENC  =      1064.82479943
  PAW double counting   =     50566.94893665   -50581.23432243
  entropy T*S    EENTRO =        -0.00000000
  eigenvalues    EBANDS =     -5063.22569880
  atomic energy  EATOM  =     16330.25046645
  ---------------------------------------------------
  free energy    TOTEN  =      -987.55571522 eV

  energy without entropy =     -987.55571522  energy(sigma->0) =     -987.55571522
  exchange ACFDT corr.  =        -0.00000000  see jH, gK, PRB 81, 115126


--------------------------------------------------------------------------------------------------------




--------------------------------------- Iteration      1(  10)  ---------------------------------------


    POTLOK:  cpu time      1.0105: real time      1.0128
    SETDIJ:  cpu time      0.1568: real time      0.1571
    TRIAL :  cpu time     46.4251: real time     46.5183
    CORREC:  cpu time      0.0001: real time      0.0001
    CHARGE:  cpu time      0.3061: real time      0.3067
    --------------------------------------------
      LOOP:  cpu time     47.8990: real time     47.9955

 eigenvalue-minimisations  :     0
 total energy-change (2. order) :-0.3984529E+01  (-0.3604704E+01)
 number of electron     392.0000046 magnetization       0.0000002
 augmentation part       11.7709719 magnetization       0.2042871

 Free energy of the ion-electron system (eV)
  ---------------------------------------------------
  alpha Z        PSCENC =       214.13764023
  Ewald energy   TEWEN  =     38608.91023382
  -Hartree energ DENC   =    -53334.06554999
  -exchange      EXHF   =       957.34532256
  -V(xc)+E(xc)   XCENC  =      1073.08783233
  PAW double counting   =     49523.84056383   -49539.18208720
  entropy T*S    EENTRO =        -0.00000000
  eigenvalues    EBANDS =     -4825.86466585
  atomic energy  EATOM  =     16330.25046645
  ---------------------------------------------------
  free energy    TOTEN  =      -991.54024380 eV

  energy without entropy =     -991.54024380  energy(sigma->0) =     -991.54024380
  exchange ACFDT corr.  =         0.00000000  see jH, gK, PRB 81, 115126


--------------------------------------------------------------------------------------------------------




--------------------------------------- Iteration      1(  11)  ---------------------------------------


    POTLOK:  cpu time      0.9992: real time      1.0014
    SETDIJ:  cpu time      0.1570: real time      0.1574
    TRIAL :  cpu time     45.0415: real time     45.1303
    CORREC:  cpu time      0.0003: real time      0.0003
    CHARGE:  cpu time      0.3061: real time      0.3067
    --------------------------------------------
      LOOP:  cpu time     46.5045: real time     46.5966

 eigenvalue-minimisations  :     0
 total energy-change (2. order) :-0.2130672E+01  (-0.1817017E+01)
 number of electron     392.0000045 magnetization       0.0000002
 augmentation part       11.7093426 magnetization       0.1660518

 Free energy of the ion-electron system (eV)
  ---------------------------------------------------
  alpha Z        PSCENC =       214.13764023
  Ewald energy   TEWEN  =     38608.91023382
  -Hartree energ DENC   =    -53278.01421090
  -exchange      EXHF   =       956.32064456
  -V(xc)+E(xc)   XCENC  =      1072.48586201
  PAW double counting   =     49062.44657696   -49078.05418623
  entropy T*S    EENTRO =        -0.00000000
  eigenvalues    EBANDS =     -4882.15394274
  atomic energy  EATOM  =     16330.25046645
  ---------------------------------------------------
[...]
   0.138E+02 -.238E+02 -.156E+01   -.161E+02 0.295E+02 0.170E+01   0.204E+01 -.511E+01 -.109E+00
 -----------------------------------------------------------------------------------------------
   -.719E+00 0.175E+01 -.712E+00   0.103E-12 -.213E-12 -.444E-15   0.637E+00 -.147E+01 0.432E+00


 POSITION                                       TOTAL-FORCE (eV/Angst)
 -----------------------------------------------------------------------------------
     16.27701      0.72248      1.66517        -0.015284      0.013353     -0.001149
      8.76318    -12.28724      1.66551         0.007704      0.007336     -0.000301
     10.01504    -10.11858      1.66552         0.002092      0.002609     -0.000389
     11.26772     -7.95107      1.66507         0.008545     -0.018635     -0.000931
     12.52237     -5.78425      1.66512         0.004942     -0.018960     -0.000530
     13.77722     -3.61794      1.66564        -0.012210      0.022687      0.000227
     15.02594     -1.44721      1.66552        -0.018027      0.005095     -0.000405
      8.76348     13.73315      1.66516         0.009852     -0.001456     -0.000482
      1.24649      0.72328      1.66518         0.014036     -0.003263     -0.000951
      2.50275      2.89333      1.66510         0.014772      0.005118     -0.001173
      3.75467      5.06119      1.66525         0.011812     -0.003978     -0.000642
      5.00595      7.23199      1.66515         0.014084     -0.030235     -0.000556
      6.26141      9.39592      1.66533         0.024890     -0.021123     -0.000924
      7.51369     11.56401      1.66505         0.010407     -0.004291     -0.001297
     10.01438     11.56340      1.66505        -0.012370      0.010336     -0.000931
      2.50141     -1.44778      1.66551        -0.013422     -0.000640      0.000072
      3.74295      0.72542      1.66497         0.014745      0.009736     -0.001399
      5.01037      2.89189      1.66504         0.016341      0.018560     -0.000963
      6.25395      5.06817      1.66560         0.012407     -0.001313      0.000176
      7.51239      7.23014      1.66566        -0.003618     -0.031578      0.001001
      8.76448      9.39665      1.66499        -0.011730     -0.009348     -0.000243
     11.26639      9.39549      1.66528        -0.005915     -0.018535     -0.000591
      3.74883     -3.62258      1.66583        -0.000195      0.012598      0.000671
      4.99631     -1.46216      1.66543         0.011234      0.020405      0.000220
      6.23461      0.71679      1.66586         0.003429      0.020121      0.002845
      7.51428      2.91468      1.66610         0.002321     -0.000913      0.003902
      8.77111      5.07137      1.66593        -0.003203     -0.000482      0.001763
     10.01880      7.23351      1.66566        -0.007363     -0.032834      0.000193
     12.52036      7.22959      1.66522        -0.003658     -0.031539     -0.000562
      5.00556     -5.78546      1.66510        -0.003135     -0.004297     -0.000451
      6.25178     -3.62066      1.66538        -0.002073      0.006713     -0.000085
      7.47363     -1.46426      1.66613        -0.006282      0.004725      0.002027
      8.78362      0.77009      1.66676        -0.008656      0.013863      0.006593
     10.01548      2.90046      1.66552        -0.008857      0.040565      0.001301
     11.27032      5.06408      1.66568        -0.004912     -0.004894     -0.000364
     13.77289      5.06243      1.66524        -0.009294     -0.005870     -0.000368
      6.25892     -7.95111      1.66511         0.002223     -0.019962     -0.000873
      7.50956     -5.78639      1.66519        -0.007509     -0.016071      0.000132
      8.76250     -3.62639      1.66520        -0.001349      0.035477      0.000565
     10.05051     -1.47530      1.66619         0.026086      0.017976      0.001512
     11.28616      0.73337      1.66512        -0.000374      0.010544     -0.001312
     12.52334      2.89701      1.66507        -0.007201      0.009869     -0.000838
     15.02525      2.89325      1.66504        -0.021742     -0.000233     -0.001002
      7.51142    -10.11872      1.66552        -0.000816      0.012945      0.000082
      8.76332     -7.95126      1.66562        -0.006459     -0.017370     -0.000322
     10.01724     -5.78616      1.66521        -0.001534     -0.017526     -0.000367
     11.27772     -3.62283      1.66535        -0.006725      0.029856     -0.000031
     12.52559     -1.45087      1.66532        -0.004755      0.022551     -0.000040
     13.77992      0.72422      1.66500        -0.015341      0.005231     -0.001137
      7.51307      1.43186      1.66768         0.009337     -0.001978      0.009871
     16.27388     -0.72396      1.66508         0.001349      0.001151     -0.000787
      8.75927    -13.73368      1.66506         0.002235      0.005917     -0.000810
     10.01207    -11.56291      1.66521        -0.016922      0.006658     -0.000536
     11.26398     -9.39278      1.66504        -0.006453     -0.006707     -0.001121
     12.51642     -7.22357      1.66478        -0.003043      0.026784     -0.001288
     13.77142     -5.05876      1.66513        -0.025875      0.010003     -0.000231
     15.02356     -2.89187      1.66523        -0.016971     -0.004371     -0.000247
      8.76296     12.28763      1.66477        -0.004900     -0.007664     -0.001318
      1.24838     -0.72455      1.66506         0.004185     -0.010122     -0.000753
      2.49023      1.44605      1.66485         0.010621     -0.011571     -0.001395
      3.75016      3.61798      1.66487        -0.014873     -0.005103     -0.001107
      5.00057      5.79413      1.66510        -0.015584      0.012182     -0.000729
      6.25826      7.95568      1.66517         0.008210      0.019627     -0.000609
      7.51153     10.12113      1.66486         0.011969     -0.008236     -0.001013
     10.01625     10.12003      1.66483        -0.013358     -0.015549     -0.000907
      2.50186     -2.89553      1.66523         0.011872      0.009658      0.000425
      3.75134     -0.73038      1.66517        -0.003983     -0.002921     -0.000723
      4.97783      1.44137      1.66475        -0.025640     -0.022299     -0.000639
      6.24883      3.63902      1.66519        -0.015709     -0.020399      0.000234
      7.51279      5.79232      1.66548        -0.000980      0.026411      0.001366
      8.76575      7.95515      1.66514        -0.010565      0.039044      0.000075
     11.27138      7.95417      1.66517        -0.005381      0.029689     -0.000396
      3.75541     -5.06396      1.66512         0.011841      0.009738      0.000275
      5.00424     -2.90488      1.66540        -0.007770     -0.019275      0.000466
      6.25393     -0.75336      1.66490        -0.013488     -0.031541      0.001969
      8.78054      3.63984      1.66536         0.020298     -0.017290      0.001362
     10.02471      5.79409      1.66549         0.008521      0.014086      0.001030
     12.52408      5.78579      1.66517         0.003752      0.013949     -0.000410
      5.00948     -7.22753      1.66477         0.012582      0.028056     -0.001062
      6.26140     -5.06063      1.66508         0.011160      0.006692     -0.000963
      7.51910     -2.89083      1.66499         0.007118     -0.028506      0.001340
     10.05185      1.43791      1.66492         0.007185     -0.032880      0.001560
     11.27574      3.61763      1.66520         0.013722     -0.017557      0.000083
     13.77534      3.61652      1.66483         0.006688      0.000749     -0.001102
      6.26056     -9.39451      1.66506         0.023360      0.002610     -0.000790
      7.51177     -7.22698      1.66515         0.000696      0.036839     -0.000504
      8.76379     -5.05943      1.66495         0.002395     -0.012391     -0.000603
     10.01454     -2.89402      1.66505        -0.008441     -0.032325      0.001215
     11.26061     -0.72777      1.66495        -0.007104     -0.016904      0.001177
     12.53270      1.44542      1.66485         0.002808      0.007188     -0.001565
     15.02618      1.44580      1.66479         0.010302     -0.017860     -0.001249
      7.51071    -11.56396      1.66517         0.031992      0.017288     -0.000496
      8.76210     -9.39378      1.66530         0.001739     -0.019876      0.000009
     10.01431     -7.22589      1.66514        -0.002289      0.039356     -0.000532
     11.26714     -5.05902      1.66508        -0.008934      0.006223     -0.000912
     12.51924     -2.89286      1.66524         0.016073     -0.026947     -0.000186
     13.76981     -0.72482      1.66512         0.000871     -0.018130     -0.000799
      8.78527     -0.76642      1.66881        -0.012529     -0.004417      0.001651
 -----------------------------------------------------------------------------------
    total drift:                                0.025995     -0.050774     -0.459164


--------------------------------------------------------------------------------------------------------



  FREE ENERGIE OF THE ION-ELECTRON SYSTEM (eV)
  ---------------------------------------------------
  free  energy   TOTEN  =      -995.82498497 eV

  energy  without entropy=     -995.82498497  energy(sigma->0) =     -995.82498497

 d Force = 0.2888385E-03[ 0.160E-03, 0.417E-03]  d Energy = 0.1947613E-03 0.941E-04
 d Force = 0.2495502E-01[ 0.246E-01, 0.253E-01]  d Ewald  = 0.2495499E-01 0.313E-07


--------------------------------------------------------------------------------------------------------


    POTLOK:  cpu time      1.0883: real time      1.0906


--------------------------------------------------------------------------------------------------------


 No cell relaxation constraints have been applied.


--------------------------------------------------------------------------------------------------------


  
 reached required accuracy - stopping structural energy minimisation
 writing wavefunctions
     LOOP+:  cpu time    282.6039: real time    302.4549
    4ORBIT:  cpu time      0.0001: real time      0.0061



 total charge

# of ion       s       p       d       tot
------------------------------------------
    1        0.752   1.416   0.000   2.168
    2        0.750   1.412   0.000   2.162
    3        0.750   1.413   0.000   2.163
    4        0.751   1.414   0.000   2.164
    5        0.751   1.415   0.000   2.166
    6        0.751   1.414   0.000   2.164
    7        0.750   1.413   0.000   2.163
    8        0.751   1.414   0.000   2.165
    9        0.752   1.417   0.000   2.170
   10        0.750   1.411   0.000   2.161
   11        0.750   1.411   0.000   2.161
   12        0.752   1.417   0.000   2.169
   13        0.751   1.415   0.000   2.166
   14        0.751   1.414   0.000   2.165
   15        0.751   1.415   0.000   2.167
   16        0.750   1.413   0.000   2.164
   17        0.753   1.421   0.000   2.175
   18        0.746   1.397   0.000   2.143
   19        0.753   1.420   0.000   2.173
   20        0.751   1.415   0.000   2.166
   21        0.751   1.414   0.000   2.165
   22        0.752   1.417   0.000   2.169
   23        0.752   1.418   0.000   2.170
   24        0.752   1.418   0.000   2.170
   25        0.764   1.420   0.000   2.184
   26        0.760   1.408   0.000   2.169
   27        0.753   1.421   0.000   2.174
   28        0.752   1.418   0.000   2.170
   29        0.751   1.415   0.000   2.166
   30        0.751   1.413   0.000   2.164
   31        0.749   1.409   0.000   2.157
   32        0.736   1.363   0.000   2.099
   33        0.761   1.360   0.000   2.121
   34        0.745   1.397   0.000   2.142
   35        0.750   1.412   0.000   2.162
   36        0.751   1.415   0.000   2.166
   37        0.751   1.414   0.000   2.165
   38        0.751   1.414   0.000   2.165
   39        0.752   1.418   0.000   2.170
   40        0.744   1.390   0.000   2.135
   41        0.755   1.431   0.000   2.185
   42        0.750   1.413   0.000   2.163
   43        0.751   1.414   0.000   2.164
   44        0.750   1.413   0.000   2.163
   45        0.751   1.414   0.000   2.165
   46        0.751   1.413   0.000   2.164
   47        0.751   1.414   0.000   2.164
   48        0.749   1.409   0.000   2.158
   49        0.752   1.418   0.000   2.170
   50        0.882   1.873   0.000   2.755
   51        1.230   2.809   0.000   4.039
   52        1.231   2.811   0.000   4.041
   53        1.230   2.808   0.000   4.038
   54        1.230   2.808   0.000   4.039
   55        1.231   2.811   0.000   4.041
   56        1.231   2.810   0.000   4.040
   57        1.230   2.809   0.000   4.039
   58        1.230   2.809   0.000   4.039
   59        1.230   2.808   0.000   4.038
   60        1.231   2.811   0.000   4.042
   61        1.230   2.805   0.000   4.035
   62        1.231   2.810   0.000   4.041
   63        1.230   2.809   0.000   4.039
   64        1.230   2.809   0.000   4.039
   65        1.230   2.810   0.000   4.040
   66        1.230   2.809   0.000   4.039
   67        1.229   2.806   0.000   4.036
   68        1.232   2.807   0.000   4.039
   69        1.232   2.804   0.000   4.036
   70        1.230   2.806   0.000   4.036
   71        1.230   2.809   0.000   4.039
   72        1.231   2.811   0.000   4.042
   73        1.231   2.812   0.000   4.043
   74        1.232   2.813   0.000   4.044
   75        1.233   2.808   0.000   4.041
   76        1.233   2.805   0.000   4.038
   77        1.231   2.811   0.000   4.042
   78        1.231   2.809   0.000   4.040
   79        1.231   2.810   0.000   4.041
   80        1.230   2.809   0.000   4.040
   81        1.230   2.811   0.000   4.041
   82        1.232   2.814   0.000   4.047
   83        1.230   2.807   0.000   4.037
   84        1.231   2.809   0.000   4.040
   85        1.231   2.809   0.000   4.040
   86        1.231   2.810   0.000   4.040
   87        1.231   2.811   0.000   4.042
   88        1.231   2.815   0.000   4.046
   89        1.229   2.808   0.000   4.037
   90        1.231   2.813   0.000   4.044
   91        1.231   2.811   0.000   4.041
   92        1.230   2.809   0.000   4.040
   93        1.230   2.809   0.000   4.039
   94        1.231   2.810   0.000   4.040
   95        1.231   2.811   0.000   4.041
   96        1.231   2.809   0.000   4.040
   97        1.230   2.807   0.000   4.037
   98        1.548   3.704   0.000   5.252
--------------------------------------------------
tot         97.075 206.788   0.000 303.863



 magnetization (x)

# of ion       s       p       d       tot
------------------------------------------
    1       -0.000  -0.000   0.000  -0.000
    2       -0.000  -0.000   0.000  -0.000
    3       -0.000  -0.000   0.000  -0.000
    4       -0.000  -0.000   0.000  -0.000
    5        0.000  -0.000   0.000  -0.000
    6       -0.000  -0.000   0.000  -0.000
    7       -0.000  -0.000   0.000  -0.000
    8        0.000   0.000   0.000   0.000
    9        0.000   0.000   0.000   0.000
   10        0.000   0.000   0.000   0.000
   11        0.000   0.000   0.000   0.000
   12       -0.000  -0.000   0.000  -0.000
   13       -0.000  -0.000   0.000  -0.000
   14       -0.000  -0.000   0.000  -0.000
   15        0.000   0.000   0.000   0.000
   16       -0.000  -0.000   0.000  -0.000
   17        0.000   0.000   0.000   0.000
   18        0.000   0.000   0.000   0.000
   19        0.000   0.000   0.000   0.000
   20       -0.000  -0.000   0.000  -0.000
   21       -0.000  -0.000   0.000  -0.000
   22       -0.000  -0.000   0.000  -0.000
   23        0.000   0.000   0.000   0.000
   24        0.000  -0.000   0.000  -0.000
   25        0.000   0.000   0.000   0.000
   26       -0.000  -0.000   0.000  -0.000
   27       -0.000  -0.000   0.000  -0.000
   28       -0.000  -0.000   0.000  -0.000
   29       -0.000  -0.000   0.000  -0.000
   30       -0.000  -0.000   0.000  -0.000
   31        0.000  -0.000   0.000  -0.000
   32       -0.000  -0.000   0.000  -0.000
   33       -0.000   0.000   0.000   0.000
   34        0.000  -0.000   0.000  -0.000
   35       -0.000   0.000   0.000   0.000
   36       -0.000  -0.000   0.000  -0.000
   37        0.000   0.000   0.000   0.000
   38       -0.000   0.000   0.000   0.000
   39        0.000   0.000   0.000   0.000
   40        0.000  -0.000   0.000  -0.000
   41        0.000   0.000   0.000   0.000
   42       -0.000   0.000   0.000   0.000
   43        0.000   0.000   0.000   0.000
   44       -0.000  -0.000   0.000  -0.000
   45       -0.000  -0.000   0.000  -0.000
   46        0.000   0.000   0.000   0.000
   47       -0.000  -0.000   0.000  -0.000
   48        0.000   0.000   0.000   0.000
   49        0.000  -0.000   0.000   0.000
   50       -0.000  -0.000   0.000  -0.000
   51       -0.000  -0.000   0.000  -0.000
   52        0.000   0.000   0.000   0.000
   53       -0.000  -0.000   0.000  -0.000
   54        0.000   0.000   0.000   0.000
   55       -0.000  -0.000   0.000  -0.000
   56        0.000   0.000   0.000   0.000
   57        0.000   0.000   0.000   0.000
   58        0.000   0.000   0.000   0.000
   59       -0.000  -0.000   0.000  -0.000
   60       -0.000   0.000   0.000   0.000
   61        0.000   0.000   0.000   0.000
   62       -0.000  -0.000   0.000  -0.000
   63        0.000   0.000   0.000   0.000
   64        0.000   0.000   0.000   0.000
   65       -0.000  -0.000   0.000  -0.000
   66       -0.000  -0.000   0.000  -0.000
   67       -0.000  -0.000   0.000  -0.000
   68       -0.000   0.000   0.000   0.000
   69       -0.000  -0.000   0.000  -0.000
   70        0.000   0.000   0.000   0.000
   71       -0.000   0.000   0.000   0.000
   72        0.000   0.000   0.000   0.000
   73        0.000   0.000   0.000   0.000
   74       -0.000  -0.000   0.000  -0.000
   75        0.000   0.000   0.000   0.000
   76        0.000   0.000   0.000   0.000
   77       -0.000  -0.000   0.000  -0.000
   78       -0.000   0.000   0.000  -0.000
   79       -0.000  -0.000   0.000  -0.000
   80       -0.000  -0.000   0.000  -0.000
   81       -0.000  -0.000   0.000  -0.000
   82       -0.000  -0.000   0.000  -0.000
   83       -0.000  -0.000   0.000  -0.000
   84       -0.000  -0.000   0.000  -0.000
   85        0.000   0.000   0.000   0.000
   86        0.000  -0.000   0.000  -0.000
   87       -0.000   0.000   0.000   0.000
   88        0.000   0.000   0.000   0.000
   89        0.000   0.000   0.000   0.000
   90        0.000   0.000   0.000   0.000
   91        0.000   0.000   0.000   0.000
   92       -0.000  -0.000   0.000  -0.000
   93       -0.000   0.000   0.000   0.000
   94       -0.000   0.000   0.000   0.000
   95       -0.000  -0.000   0.000  -0.000
   96        0.000   0.000   0.000   0.000
   97        0.000   0.000   0.000   0.000
   98       -0.000  -0.000   0.000  -0.000
--------------------------------------------------
tot         -0.000   0.000   0.000  -0.000


 total amount of memory used by VASP MPI-rank0   866275. kBytes
=======================================================================

   base      :      30000. kBytes
   nonlr-proj:      12114. kBytes
   fftplans  :       9558. kBytes
   grid      :      80990. kBytes
   one-center:        301. kBytes
   HF        :         18. kBytes
   wavefun   :      34278. kBytes
   fock_wrk  :     699016. kBytes

  
  
 General timing and accounting informations for this job:
 ========================================================
  
                  Total CPU time used (sec):    13949.275
                            User time (sec):    13755.701
                          System time (sec):      193.574
                         Elapsed time (sec):    14251.882
  
                   Maximum memory used (kb):     5421516.
                   Average memory used (kb):          N/A
  
                          Minor page faults:     41735799
                          Major page faults:           31
                 Voluntary context switches:       324486
